 Entering Gaussian System, Link 0=g16
 Initial command:
 /mnt/gpfs3_amd/share/apps/amd/gaussian/g16-A.03/g16/l1.exe "g16_scratch/Gau-3037119.inp" -scrdir="g16_scratch/"
 Entering Link 1 = /mnt/gpfs3_amd/share/apps/amd/gaussian/g16-A.03/g16/l1.exe PID=   3037120.
  
 Copyright (c) 1988,1990,1992,1993,1995,1998,2003,2009,2016,
            Gaussian, Inc.  All Rights Reserved.
  
 This is part of the Gaussian(R) 16 program.  It is based on
 the Gaussian(R) 09 system (copyright 2009, Gaussian, Inc.),
 the Gaussian(R) 03 system (copyright 2003, Gaussian, Inc.),
 the Gaussian(R) 98 system (copyright 1998, Gaussian, Inc.),
 the Gaussian(R) 94 system (copyright 1995, Gaussian, Inc.),
 the Gaussian 92(TM) system (copyright 1992, Gaussian, Inc.),
 the Gaussian 90(TM) system (copyright 1990, Gaussian, Inc.),
 the Gaussian 88(TM) system (copyright 1988, Gaussian, Inc.),
 the Gaussian 86(TM) system (copyright 1986, Carnegie Mellon
 University), and the Gaussian 82(TM) system (copyright 1983,
 Carnegie Mellon University). Gaussian is a federally registered
 trademark of Gaussian, Inc.
  
 This software contains proprietary and confidential information,
 including trade secrets, belonging to Gaussian, Inc.
  
 This software is provided under written license and may be
 used, copied, transmitted, or stored only in accord with that
 written license.
  
 The following legend is applicable only to US Government
 contracts under FAR:
  
                    RESTRICTED RIGHTS LEGEND
  
 Use, reproduction and disclosure by the US Government is
 subject to restrictions as set forth in subparagraphs (a)
 and (c) of the Commercial Computer Software - Restricted
 Rights clause in FAR 52.227-19.
  
 Gaussian, Inc.
 340 Quinnipiac St., Bldg. 40, Wallingford CT 06492
  
  
 ---------------------------------------------------------------
 Warning -- This program may not be used in any manner that
 competes with the business of Gaussian, Inc. or will provide
 assistance to any competitor of Gaussian, Inc.  The licensee
 of this program is prohibited from giving any competitor of
 Gaussian, Inc. access to this program.  By using this program,
 the user acknowledges that Gaussian, Inc. is engaged in the
 business of creating and licensing software in the field of
 computational chemistry and represents and warrants to the
 licensee that it is not a competitor of Gaussian, Inc. and that
 it will not use this program in any manner prohibited above.
 ---------------------------------------------------------------
  

 Cite this work as:
 Gaussian 16, Revision A.03,
 M. J. Frisch, G. W. Trucks, H. B. Schlegel, G. E. Scuseria, 
 M. A. Robb, J. R. Cheeseman, G. Scalmani, V. Barone, 
 G. A. Petersson, H. Nakatsuji, X. Li, M. Caricato, A. V. Marenich, 
 J. Bloino, B. G. Janesko, R. Gomperts, B. Mennucci, H. P. Hratchian, 
 J. V. Ortiz, A. F. Izmaylov, J. L. Sonnenberg, D. Williams-Young, 
 F. Ding, F. Lipparini, F. Egidi, J. Goings, B. Peng, A. Petrone, 
 T. Henderson, D. Ranasinghe, V. G. Zakrzewski, J. Gao, N. Rega, 
 G. Zheng, W. Liang, M. Hada, M. Ehara, K. Toyota, R. Fukuda, 
 J. Hasegawa, M. Ishida, T. Nakajima, Y. Honda, O. Kitao, H. Nakai, 
 T. Vreven, K. Throssell, J. A. Montgomery, Jr., J. E. Peralta, 
 F. Ogliaro, M. J. Bearpark, J. J. Heyd, E. N. Brothers, K. N. Kudin, 
 V. N. Staroverov, T. A. Keith, R. Kobayashi, J. Normand, 
 K. Raghavachari, A. P. Rendell, J. C. Burant, S. S. Iyengar, 
 J. Tomasi, M. Cossi, J. M. Millam, M. Klene, C. Adamo, R. Cammi, 
 J. W. Ochterski, R. L. Martin, K. Morokuma, O. Farkas, 
 J. B. Foresman, and D. J. Fox, Gaussian, Inc., Wallingford CT, 2016.
 
 ******************************************
 Gaussian 16:  AM64L-G16RevA.03 25-Dec-2016
                11-Jan-2022 
 ******************************************
 %Mem=512GB
 %NProcShared=128
 Will use up to  128 processors via shared memory.
 %Chk=MAA1-DMA1-2.chk
 ---------------------------------------------------------------------
 #n B3LYP/6-311++G(d,p) Opt freq EmpiricalDispersion=GD3BJ IOp(6/33=2)
 ---------------------------------------------------------------------
 1/18=20,19=15,26=3,38=1/1,3;
 2/9=110,12=2,17=6,18=5,40=1/2;
 3/5=4,6=6,7=1111,11=2,25=1,30=1,71=1,74=-5,124=41/1,2,3;
 4//1;
 5/5=2,38=5/2;
 6/7=2,8=2,9=2,10=2,28=1,33=2/1;
 7//1,2,3,16;
 1/18=20,19=15,26=3/3(2);
 2/9=110/2;
 99//99;
 2/9=110/2;
 3/5=4,6=6,7=1111,11=2,25=1,30=1,71=1,74=-5,124=41/1,2,3;
 4/5=5,16=3,69=1/1;
 5/5=2,38=5/2;
 7//1,2,3,16;
 1/18=20,19=15,26=3/3(-5);
 2/9=110/2;
 6/7=2,8=2,9=2,10=2,19=2,28=1,33=2/1;
 99/9=1/99;
 -----------------
 MAA1-DMA1 geo opt
 -----------------
 Symbolic Z-matrix:
 Charge =  0 Multiplicity = 1
 C                     19.54909   5.79076   9.68438 
 C                     19.67254   5.44026   11.13313 
 C                     20.04264   4.22313   11.56487 
 C                     19.41545   6.47894   12.15844 
 O                     19.4239   6.3147    13.36477 
 O                     19.23138   7.68823   11.6049 
 H                     19.79252   4.93917   9.03958 
 H                     20.23396   6.60388   9.42129 
 H                     18.52633   6.10174   9.4484 
 H                     20.26771   3.41968   10.87204 
 H                     20.13721   4.00061   12.62507 
 H                     19.3215   8.30736   12.3681 
 C                     19.47227   14.6745   15.89999 
 C                     18.22515   14.01949   15.39373 
 C                     17.05069   14.66659   15.30461 
 C                     18.27125   12.59273   14.95977 
 O                     17.32759   11.99333   14.46867 
 O                     19.50544   12.08404   15.193 
 C                     19.71772   10.70687   14.83105 
 C                     20.79755   10.64777   13.74045 
 N                     21.0832   9.28346   13.25351 
 C                     21.9427   9.3513    12.06283 
 C                     21.76388   8.48392   14.28383 
 H                     19.30253   15.72423   16.16296 
 H                     20.25693   14.65103   15.13649 
 H                     19.83904   14.16666   16.79805 
 H                     16.95091   15.70552   15.60114 
 H                     16.15462   14.17473   14.9333 
 H                     18.80254   10.2129   14.4859 
 H                     20.04808   10.19621   15.7403 
 H                     21.7112   11.14019   14.10131 
 H                     20.44307   11.26392   12.90316 
 H                     22.89803   9.8481    12.26689 
 H                     21.43499   9.88957   11.25508 
 H                     22.1519   8.34468   11.68251 
 H                     22.00556   7.48586   13.90074 
 H                     21.12072   8.32764   15.15505 
 H                     22.69668   8.95272   14.61946 
 
 Add virtual bond connecting atoms N21        and H12        Dist= 4.16D+00.

 GradGradGradGradGradGradGradGradGradGradGradGradGradGradGradGradGradGrad
 Berny optimization.
 Initialization pass.
                           ----------------------------
                           !    Initial Parameters    !
                           ! (Angstroms and Degrees)  !
 --------------------------                            --------------------------
 ! Name  Definition              Value          Derivative Info.                !
 --------------------------------------------------------------------------------
 ! R1    R(1,2)                  1.4956         estimate D2E/DX2                !
 ! R2    R(1,7)                  1.0956         estimate D2E/DX2                !
 ! R3    R(1,8)                  1.0952         estimate D2E/DX2                !
 ! R4    R(1,9)                  1.0947         estimate D2E/DX2                !
 ! R5    R(2,3)                  1.3434         estimate D2E/DX2                !
 ! R6    R(2,4)                  1.482          estimate D2E/DX2                !
 ! R7    R(3,10)                 1.0845         estimate D2E/DX2                !
 ! R8    R(3,11)                 1.0874         estimate D2E/DX2                !
 ! R9    R(4,5)                  1.2175         estimate D2E/DX2                !
 ! R10   R(4,6)                  1.3426         estimate D2E/DX2                !
 ! R11   R(6,12)                 0.9869         estimate D2E/DX2                !
 ! R12   R(12,21)                2.2001         estimate D2E/DX2                !
 ! R13   R(13,14)                1.4969         estimate D2E/DX2                !
 ! R14   R(13,24)                1.0954         estimate D2E/DX2                !
 ! R15   R(13,25)                1.0951         estimate D2E/DX2                !
 ! R16   R(13,26)                1.095          estimate D2E/DX2                !
 ! R17   R(14,15)                1.3439         estimate D2E/DX2                !
 ! R18   R(14,16)                1.492          estimate D2E/DX2                !
 ! R19   R(15,27)                1.085          estimate D2E/DX2                !
 ! R20   R(15,28)                1.0875         estimate D2E/DX2                !
 ! R21   R(16,17)                1.221          estimate D2E/DX2                !
 ! R22   R(16,18)                1.3551         estimate D2E/DX2                !
 ! R23   R(18,19)                1.4397         estimate D2E/DX2                !
 ! R24   R(19,20)                1.5359         estimate D2E/DX2                !
 ! R25   R(19,29)                1.0958         estimate D2E/DX2                !
 ! R26   R(19,30)                1.0939         estimate D2E/DX2                !
 ! R27   R(20,21)                1.4765         estimate D2E/DX2                !
 ! R28   R(20,31)                1.0988         estimate D2E/DX2                !
 ! R29   R(20,32)                1.0983         estimate D2E/DX2                !
 ! R30   R(21,22)                1.4701         estimate D2E/DX2                !
 ! R31   R(21,23)                1.4711         estimate D2E/DX2                !
 ! R32   R(22,33)                1.0959         estimate D2E/DX2                !
 ! R33   R(22,34)                1.0954         estimate D2E/DX2                !
 ! R34   R(22,35)                1.0962         estimate D2E/DX2                !
 ! R35   R(23,36)                1.096          estimate D2E/DX2                !
 ! R36   R(23,37)                1.0941         estimate D2E/DX2                !
 ! R37   R(23,38)                1.0966         estimate D2E/DX2                !
 ! A1    A(2,1,7)              111.6913         estimate D2E/DX2                !
 ! A2    A(2,1,8)              110.7975         estimate D2E/DX2                !
 ! A3    A(2,1,9)              110.6394         estimate D2E/DX2                !
 ! A4    A(7,1,8)              107.2644         estimate D2E/DX2                !
 ! A5    A(7,1,9)              107.5497         estimate D2E/DX2                !
 ! A6    A(8,1,9)              108.7564         estimate D2E/DX2                !
 ! A7    A(1,2,3)              123.1171         estimate D2E/DX2                !
 ! A8    A(1,2,4)              119.4456         estimate D2E/DX2                !
 ! A9    A(3,2,4)              117.4155         estimate D2E/DX2                !
 ! A10   A(2,3,10)             121.5374         estimate D2E/DX2                !
 ! A11   A(2,3,11)             121.5123         estimate D2E/DX2                !
 ! A12   A(10,3,11)            116.9488         estimate D2E/DX2                !
 ! A13   A(2,4,5)              126.1404         estimate D2E/DX2                !
 ! A14   A(2,4,6)              111.7043         estimate D2E/DX2                !
 ! A15   A(5,4,6)              122.07           estimate D2E/DX2                !
 ! A16   A(4,6,12)             103.5151         estimate D2E/DX2                !
 ! A17   A(6,12,21)            131.5059         estimate D2E/DX2                !
 ! A18   A(14,13,24)           111.8039         estimate D2E/DX2                !
 ! A19   A(14,13,25)           110.5974         estimate D2E/DX2                !
 ! A20   A(14,13,26)           110.7025         estimate D2E/DX2                !
 ! A21   A(24,13,25)           107.3946         estimate D2E/DX2                !
 ! A22   A(24,13,26)           107.4257         estimate D2E/DX2                !
 ! A23   A(25,13,26)           108.7771         estimate D2E/DX2                !
 ! A24   A(13,14,15)           122.6724         estimate D2E/DX2                !
 ! A25   A(13,14,16)           119.4113         estimate D2E/DX2                !
 ! A26   A(15,14,16)           117.9156         estimate D2E/DX2                !
 ! A27   A(14,15,27)           121.5542         estimate D2E/DX2                !
 ! A28   A(14,15,28)           121.6638         estimate D2E/DX2                !
 ! A29   A(27,15,28)           116.782          estimate D2E/DX2                !
 ! A30   A(14,16,17)           124.2306         estimate D2E/DX2                !
 ! A31   A(14,16,18)           109.697          estimate D2E/DX2                !
 ! A32   A(17,16,18)           126.0723         estimate D2E/DX2                !
 ! A33   A(16,18,19)           116.7503         estimate D2E/DX2                !
 ! A34   A(18,19,20)           108.6023         estimate D2E/DX2                !
 ! A35   A(18,19,29)           112.7847         estimate D2E/DX2                !
 ! A36   A(18,19,30)           106.3862         estimate D2E/DX2                !
 ! A37   A(20,19,29)           110.2545         estimate D2E/DX2                !
 ! A38   A(20,19,30)           111.0955         estimate D2E/DX2                !
 ! A39   A(29,19,30)           107.674          estimate D2E/DX2                !
 ! A40   A(19,20,21)           113.9384         estimate D2E/DX2                !
 ! A41   A(19,20,31)           109.5204         estimate D2E/DX2                !
 ! A42   A(19,20,32)           107.0266         estimate D2E/DX2                !
 ! A43   A(21,20,31)           111.1937         estimate D2E/DX2                !
 ! A44   A(21,20,32)           109.2316         estimate D2E/DX2                !
 ! A45   A(31,20,32)           105.5039         estimate D2E/DX2                !
 ! A46   A(12,21,20)           112.8155         estimate D2E/DX2                !
 ! A47   A(12,21,22)            99.3628         estimate D2E/DX2                !
 ! A48   A(12,21,23)           114.2825         estimate D2E/DX2                !
 ! A49   A(20,21,22)           109.7301         estimate D2E/DX2                !
 ! A50   A(20,21,23)           111.1455         estimate D2E/DX2                !
 ! A51   A(22,21,23)           108.7733         estimate D2E/DX2                !
 ! A52   A(21,22,33)           112.319          estimate D2E/DX2                !
 ! A53   A(21,22,34)           110.4225         estimate D2E/DX2                !
 ! A54   A(21,22,35)           110.5            estimate D2E/DX2                !
 ! A55   A(33,22,34)           108.5761         estimate D2E/DX2                !
 ! A56   A(33,22,35)           108.3307         estimate D2E/DX2                !
 ! A57   A(34,22,35)           106.4895         estimate D2E/DX2                !
 ! A58   A(21,23,36)           110.6185         estimate D2E/DX2                !
 ! A59   A(21,23,37)           111.3047         estimate D2E/DX2                !
 ! A60   A(21,23,38)           112.0612         estimate D2E/DX2                !
 ! A61   A(36,23,37)           106.133          estimate D2E/DX2                !
 ! A62   A(36,23,38)           107.9808         estimate D2E/DX2                !
 ! A63   A(37,23,38)           108.5045         estimate D2E/DX2                !
 ! D1    D(7,1,2,3)              0.1863         estimate D2E/DX2                !
 ! D2    D(7,1,2,4)            178.4428         estimate D2E/DX2                !
 ! D3    D(8,1,2,3)           -119.3345         estimate D2E/DX2                !
 ! D4    D(8,1,2,4)             58.9219         estimate D2E/DX2                !
 ! D5    D(9,1,2,3)            119.9612         estimate D2E/DX2                !
 ! D6    D(9,1,2,4)            -61.7824         estimate D2E/DX2                !
 ! D7    D(1,2,3,10)            -0.4028         estimate D2E/DX2                !
 ! D8    D(1,2,3,11)           179.1471         estimate D2E/DX2                !
 ! D9    D(4,2,3,10)          -178.6923         estimate D2E/DX2                !
 ! D10   D(4,2,3,11)             0.8575         estimate D2E/DX2                !
 ! D11   D(1,2,4,5)            176.6109         estimate D2E/DX2                !
 ! D12   D(1,2,4,6)             -6.7125         estimate D2E/DX2                !
 ! D13   D(3,2,4,5)             -5.0341         estimate D2E/DX2                !
 ! D14   D(3,2,4,6)            171.6425         estimate D2E/DX2                !
 ! D15   D(2,4,6,12)          -164.9747         estimate D2E/DX2                !
 ! D16   D(5,4,6,12)            11.8582         estimate D2E/DX2                !
 ! D17   D(4,6,12,21)           87.5624         estimate D2E/DX2                !
 ! D18   D(6,12,21,20)         144.2332         estimate D2E/DX2                !
 ! D19   D(6,12,21,22)          28.094          estimate D2E/DX2                !
 ! D20   D(6,12,21,23)         -87.514          estimate D2E/DX2                !
 ! D21   D(24,13,14,15)         -0.9132         estimate D2E/DX2                !
 ! D22   D(24,13,14,16)        178.7721         estimate D2E/DX2                !
 ! D23   D(25,13,14,15)       -120.5383         estimate D2E/DX2                !
 ! D24   D(25,13,14,16)         59.147          estimate D2E/DX2                !
 ! D25   D(26,13,14,15)        118.8222         estimate D2E/DX2                !
 ! D26   D(26,13,14,16)        -61.4926         estimate D2E/DX2                !
 ! D27   D(13,14,15,27)         -0.1344         estimate D2E/DX2                !
 ! D28   D(13,14,15,28)        179.9397         estimate D2E/DX2                !
 ! D29   D(16,14,15,27)       -179.8241         estimate D2E/DX2                !
 ! D30   D(16,14,15,28)          0.25           estimate D2E/DX2                !
 ! D31   D(13,14,16,17)       -176.0032         estimate D2E/DX2                !
 ! D32   D(13,14,16,18)          3.8939         estimate D2E/DX2                !
 ! D33   D(15,14,16,17)          3.6969         estimate D2E/DX2                !
 ! D34   D(15,14,16,18)       -176.406          estimate D2E/DX2                !
 ! D35   D(14,16,18,19)        179.8587         estimate D2E/DX2                !
 ! D36   D(17,16,18,19)         -0.2466         estimate D2E/DX2                !
 ! D37   D(16,18,19,20)        117.3614         estimate D2E/DX2                !
 ! D38   D(16,18,19,29)         -5.157          estimate D2E/DX2                !
 ! D39   D(16,18,19,30)       -122.9809         estimate D2E/DX2                !
 ! D40   D(18,19,20,21)       -178.4251         estimate D2E/DX2                !
 ! D41   D(18,19,20,31)         56.3314         estimate D2E/DX2                !
 ! D42   D(18,19,20,32)        -57.5706         estimate D2E/DX2                !
 ! D43   D(29,19,20,21)        -54.3864         estimate D2E/DX2                !
 ! D44   D(29,19,20,31)       -179.63           estimate D2E/DX2                !
 ! D45   D(29,19,20,32)         66.468          estimate D2E/DX2                !
 ! D46   D(30,19,20,21)         64.9024         estimate D2E/DX2                !
 ! D47   D(30,19,20,31)        -60.3411         estimate D2E/DX2                !
 ! D48   D(30,19,20,32)       -174.2431         estimate D2E/DX2                !
 ! D49   D(19,20,21,12)         60.2948         estimate D2E/DX2                !
 ! D50   D(19,20,21,22)        170.0728         estimate D2E/DX2                !
 ! D51   D(19,20,21,23)        -69.5763         estimate D2E/DX2                !
 ! D52   D(31,20,21,12)       -175.3551         estimate D2E/DX2                !
 ! D53   D(31,20,21,22)        -65.5771         estimate D2E/DX2                !
 ! D54   D(31,20,21,23)         54.7739         estimate D2E/DX2                !
 ! D55   D(32,20,21,12)        -59.3208         estimate D2E/DX2                !
 ! D56   D(32,20,21,22)         50.4571         estimate D2E/DX2                !
 ! D57   D(32,20,21,23)        170.8081         estimate D2E/DX2                !
 ! D58   D(12,21,22,33)        178.1283         estimate D2E/DX2                !
 ! D59   D(12,21,22,34)         56.7751         estimate D2E/DX2                !
 ! D60   D(12,21,22,35)        -60.7778         estimate D2E/DX2                !
 ! D61   D(20,21,22,33)         59.6618         estimate D2E/DX2                !
 ! D62   D(20,21,22,34)        -61.6914         estimate D2E/DX2                !
 ! D63   D(20,21,22,35)       -179.2443         estimate D2E/DX2                !
 ! D64   D(23,21,22,33)        -62.1193         estimate D2E/DX2                !
 ! D65   D(23,21,22,34)        176.5275         estimate D2E/DX2                !
 ! D66   D(23,21,22,35)         58.9746         estimate D2E/DX2                !
 ! D67   D(12,21,23,36)         53.0432         estimate D2E/DX2                !
 ! D68   D(12,21,23,37)        -64.6921         estimate D2E/DX2                !
 ! D69   D(12,21,23,38)        173.598          estimate D2E/DX2                !
 ! D70   D(20,21,23,36)       -177.8618         estimate D2E/DX2                !
 ! D71   D(20,21,23,37)         64.4028         estimate D2E/DX2                !
 ! D72   D(20,21,23,38)        -57.3071         estimate D2E/DX2                !
 ! D73   D(22,21,23,36)        -56.9465         estimate D2E/DX2                !
 ! D74   D(22,21,23,37)       -174.6819         estimate D2E/DX2                !
 ! D75   D(22,21,23,38)         63.6082         estimate D2E/DX2                !
 --------------------------------------------------------------------------------
 Trust Radius=3.00D-01 FncErr=1.00D-07 GrdErr=1.00D-06 EigMax=2.50D+02 EigMin=1.00D-04
 Number of steps in this run=    185 maximum allowed number of steps=    228.
 GradGradGradGradGradGradGradGradGradGradGradGradGradGradGradGradGradGrad

                          Input orientation:                          
 ---------------------------------------------------------------------
 Center     Atomic      Atomic             Coordinates (Angstroms)
 Number     Number       Type             X           Y           Z
 ---------------------------------------------------------------------
      1          6           0       19.549090    5.790760    9.684380
      2          6           0       19.672540    5.440260   11.133130
      3          6           0       20.042640    4.223130   11.564870
      4          6           0       19.415450    6.478940   12.158440
      5          8           0       19.423900    6.314700   13.364770
      6          8           0       19.231380    7.688230   11.604900
      7          1           0       19.792520    4.939170    9.039580
      8          1           0       20.233960    6.603880    9.421290
      9          1           0       18.526330    6.101740    9.448400
     10          1           0       20.267710    3.419680   10.872040
     11          1           0       20.137210    4.000610   12.625070
     12          1           0       19.321500    8.307360   12.368100
     13          6           0       19.472270   14.674500   15.899990
     14          6           0       18.225150   14.019490   15.393730
     15          6           0       17.050690   14.666590   15.304610
     16          6           0       18.271250   12.592730   14.959770
     17          8           0       17.327590   11.993330   14.468670
     18          8           0       19.505440   12.084040   15.193000
     19          6           0       19.717720   10.706870   14.831050
     20          6           0       20.797550   10.647770   13.740450
     21          7           0       21.083200    9.283460   13.253510
     22          6           0       21.942700    9.351300   12.062830
     23          6           0       21.763880    8.483920   14.283830
     24          1           0       19.302530   15.724230   16.162960
     25          1           0       20.256930   14.651030   15.136490
     26          1           0       19.839040   14.166660   16.798050
     27          1           0       16.950910   15.705520   15.601140
     28          1           0       16.154620   14.174730   14.933300
     29          1           0       18.802540   10.212900   14.485900
     30          1           0       20.048080   10.196210   15.740300
     31          1           0       21.711200   11.140190   14.101310
     32          1           0       20.443070   11.263920   12.903160
     33          1           0       22.898030    9.848100   12.266890
     34          1           0       21.434990    9.889570   11.255080
     35          1           0       22.151900    8.344680   11.682510
     36          1           0       22.005560    7.485860   13.900740
     37          1           0       21.120720    8.327640   15.155050
     38          1           0       22.696680    8.952720   14.619460
 ---------------------------------------------------------------------
                    Distance matrix (angstroms):
                    1          2          3          4          5
     1  C    0.000000
     2  C    1.495649   0.000000
     3  C    2.497458   1.343421   0.000000
     4  C    2.571463   1.481962   2.415444   0.000000
     5  O    3.719604   2.409706   2.827922   1.217489   0.000000
     6  O    2.718406   2.338922   3.559026   1.342636   2.240712
     7  H    1.095550   2.156024   2.636733   3.498623   4.553596
     8  H    1.095184   2.144668   3.209285   2.859643   4.036193
     9  H    1.094730   2.142351   3.210579   2.877000   4.023548
    10  H    2.747539   2.122531   1.084528   3.426404   3.912398
    11  H    3.492589   2.124711   1.087420   2.623128   2.531991
    12  H    3.686113   3.141440   4.224471   1.842798   2.230366
    13  C   10.842534  10.393953  11.329154   9.009419   8.735899
    14  C   10.102549   9.687664  10.673898   8.291189   8.057138
    15  C   10.798581  10.459470  11.489268   9.084497   8.896582
    16  C    8.702265   8.231927   9.203987   6.821662   6.579232
    17  O    8.142258   7.717988   8.728090   6.332837   6.153044
    18  O    8.363742   7.787829   8.674435   6.374465   6.052632
    19  C    7.119325   6.435358   7.267213   5.010948   4.639770
    20  C    6.449876   5.931435   6.824884   4.668201   4.561090
    21  N    5.224092   4.610440   5.435183   3.441787   3.402821
    22  C    4.905491   4.616731   5.491477   3.827086   4.154557
    23  C    5.771771   4.854326   5.339451   3.748647   3.320496
    24  H   11.861982  11.454088  12.408283  10.075928   9.817528
    25  H   10.427412  10.060153  11.024676   8.738417   8.563138
    26  H   10.992910  10.405244  11.238390   8.989241   8.579804
    27  H   11.834739  11.521543  12.557689  10.151646   9.965166
    28  H   10.457750  10.154212  11.202561   8.806704   8.656128
    29  H    6.570179   5.897123   6.778467   4.442430   4.103533
    30  H    7.505408   6.632202   7.287793   5.200773   4.593350
    31  H    7.266388   6.742064   7.554028   5.547293   5.390694
    32  H    6.412116   6.135286   7.178028   4.950419   5.074108
    33  H    5.860611   5.578374   6.347155   4.846789   5.075415
    34  H    4.777443   4.787219   5.843214   4.065341   4.612480
    35  H    4.158083   3.858069   4.631414   3.345991   3.793785
    36  H    5.165782   4.157779   4.467074   3.279964   2.885108
    37  H    6.231694   5.158491   5.558656   3.912200   3.183744
    38  H    6.652844   5.799767   6.224425   4.789851   4.386854
                    6          7          8          9         10
     6  O    0.000000
     7  H    3.801720   0.000000
     8  H    2.636121   1.764038   0.000000
     9  H    2.768490   1.766901   1.780135   0.000000
    10  H    4.453267   2.427461   3.499278   3.500372   0.000000
    11  H    3.931897   3.722290   4.129235   4.135325   1.851384
    12  H    0.986873   4.758740   3.523935   3.744556   5.198358
    13  C    8.204498  11.914044  10.377313  10.770795  12.352489
    14  C    7.446649  11.193037   9.731219   9.905979  11.703577
    15  C    8.193947  11.890792  10.476352  10.479951  12.509591
    16  C    6.019229   9.794891   8.390072   8.518992  10.239152
    17  O    5.509944   9.236453   7.935314   7.832683   9.751283
    18  O    5.680908   9.433778   7.992217   8.351467   9.711997
    19  C    4.444857   8.173927   6.809298   7.183283   8.311401
    20  C    3.971440   7.463001   5.943553   6.651806   7.794472
    21  N    2.948205   6.188369   4.752606   5.580304   6.381249
    22  C    3.213527   5.764565   4.176822   5.391333   6.277554
    23  C    3.771385   6.629756   5.433185   6.287917   6.286920
    24  H    9.238954  12.934456  11.379739  11.759257  13.428602
    25  H    7.874291  11.476420   9.870191  10.413439  12.013695
    26  H    8.325149  12.055812  10.572048  10.990155  12.280022
    27  H    9.243777  12.924516  11.480802  11.513937  13.575987
    28  H    7.913241  11.544082  10.214746  10.044018  12.209932
    29  H    3.854611   7.645567   6.381556   6.508021   7.832914
    30  H    4.904946   8.520647   7.271126   7.659531   8.346829
    31  H    4.929259   8.231348   6.683033   7.561676   8.492239
    32  H    3.992397   7.439955   5.820921   6.500566   8.104832
    33  H    4.306691   6.645097   5.071457   6.410215   7.084404
    34  H    3.134353   5.666799   3.949812   5.106080   6.585495
    35  H    2.994393   4.914189   3.438313   4.813189   5.335041
    36  H    3.606648   5.917267   4.897135   5.817573   5.359754
    37  H    4.072102   7.116517   6.052578   6.652168   6.569617
    38  H    4.763907   7.461755   6.213132   7.229092   7.110386
                   11         12         13         14         15
    11  H    0.000000
    12  H    4.390844   0.000000
    13  C   11.184774   7.282682   0.000000
    14  C   10.568794   6.556283   1.496879   0.000000
    15  C   11.422332   7.363387   2.493710   1.343889   0.000000
    16  C    9.097096   5.117047   2.580742   1.492009   2.430962
    17  O    8.670432   4.687691   3.719812   2.401390   2.814567
    18  O    8.505013   4.719873   2.685408   2.329249   3.564803
    19  C    7.072216   3.461324   4.116426   3.676660   4.797571
    20  C    6.772360   3.088622   4.757577   4.551821   5.712834
    21  N    5.403549   2.200070   6.217899   5.931186   7.031802
    22  C    5.675015   2.837902   7.011653   6.834257   7.917904
    23  C    5.049516   3.109086   6.796082   6.663109   7.841018
    24  H   12.274226   8.331343   1.095399   2.158379   2.631758
    25  H   10.943172   6.984351   1.095068   2.143162   3.210682
    26  H   10.993236   7.363674   1.094958   2.144391   3.202372
    27  H   12.490573   8.414572   2.740359   2.123536   1.085017
    28  H   11.166990   7.143907   3.491570   2.126779   1.087538
    29  H    6.620920   2.895769   4.728008   3.955713   4.855370
    30  H    6.935277   3.932862   4.517980   4.249783   5.399858
    31  H    7.458574   4.091407   4.554054   4.702474   5.966890
    32  H    7.275064   3.207095   4.642790   4.326115   5.371533
    33  H    6.476385   3.895599   6.944738   7.000959   8.163147
    34  H    6.183927   2.865143   6.951476   6.669913   7.644652
    35  H    4.880404   2.912489   8.064377   7.835559   8.894296
    36  H    4.155121   3.198128   7.879791   7.694728   8.836542
    37  H    5.107962   3.317332   6.599618   6.390497   7.534574
    38  H    5.920462   4.108157   6.691438   6.801929   8.061944
                   16         17         18         19         20
    16  C    0.000000
    17  O    1.221046   0.000000
    18  O    1.355133   2.296936   0.000000
    19  C    2.380192   2.738434   1.439676   0.000000
    20  C    3.413474   3.792289   2.417089   1.535882   0.000000
    21  N    4.665796   4.787966   3.754224   2.525721   1.476499
    22  C    5.690226   5.836748   4.817268   3.801467   2.409691
    23  C    5.434858   5.659575   4.346033   3.070460   2.431317
    24  H    3.509629   4.548694   3.772662   5.207712   5.820145
    25  H    2.865441   4.011282   2.675326   3.992548   4.274025
    26  H    2.883487   4.056693   2.650430   3.981702   4.759227
    27  H    3.441528   3.899324   4.450541   5.764961   6.621151
    28  H    2.642640   2.519969   3.958083   4.973147   5.951398
    29  H    2.484032   2.312078   2.120194   1.095760   2.173677
    30  H    3.083774   3.499678   2.039092   1.093914   2.182891
    31  H    3.831460   4.480942   2.635909   2.166622   1.098842
    32  H    3.272947   3.562173   2.606744   2.133822   1.098340
    33  H    6.015953   6.362362   5.007116   4.174539   2.687539
    34  H    5.571450   5.623495   4.903680   4.050254   2.675493
    35  H    6.621617   6.659527   5.771491   4.628010   3.372478
    36  H    6.414572   6.520984   5.391085   4.058891   3.388607
    37  H    5.133089   5.319421   4.089145   2.781029   2.736519
    38  H    5.740202   6.172129   4.507563   3.463526   2.693055
                   21         22         23         24         25
    21  N    0.000000
    22  C    1.470055   0.000000
    23  C    1.471105   2.391060   0.000000
    24  H    7.288292   8.024699   7.874736   0.000000
    25  H    5.747969   6.354238   6.405558   1.765298   0.000000
    26  H    6.160953   7.073570   6.505370   1.765561   1.780457
    27  H    7.989371   8.821208   8.777898   2.417873   3.501088
    28  H    7.144027   8.062688   8.016915   3.717842   4.134863
    29  H    2.753916   4.058846   3.435075   5.782498   4.715455
    30  H    2.844066   4.222232   2.827934   5.594059   4.500403
    31  H    2.135555   2.721970   2.663054   5.573645   3.938591
    32  H    2.110624   2.571606   3.373305   5.641054   4.061394
    33  H    2.141459   1.095950   2.686137   7.914284   6.186934
    34  H    2.117746   1.095429   3.355197   7.916939   6.254972
    35  H    2.119309   1.096217   2.633783   9.091265   7.435788
    36  H    2.121561   2.619491   1.096034   8.960734   7.478265
    37  H    2.128580   3.359368   1.094122   7.683179   6.382142
    38  H    2.139749   2.695127   1.096602   7.730200   6.220164
                   26         27         28         29         30
    26  H    0.000000
    27  H    3.484534   0.000000
    28  H    4.129444   1.850245   0.000000
    29  H    4.696018   5.902641   4.786204   0.000000
    30  H    4.114244   6.321734   5.624847   1.767814   0.000000
    31  H    4.465077   6.764029   6.385626   3.077024   2.518602
    32  H    4.894989   6.261157   5.566425   2.510189   3.057022
    33  H    6.966979   8.988594   8.444113   4.672272   4.506437
    34  H    7.180882   8.533492   7.731378   4.180016   4.704758
    35  H    8.087863   9.827916   8.973544   4.750521   4.931519
    36  H    7.597454   9.798146   8.946545   4.247175   3.815980
    37  H    6.199702   8.486426   7.674619   3.062013   2.232628
    38  H    6.332261   8.920643   8.376541   4.095146   3.133310
                   31         32         33         34         35
    31  H    0.000000
    32  H    1.749007   0.000000
    33  H    2.538338   2.904516   0.000000
    34  H    3.121116   2.364088   1.779316   0.000000
    35  H    3.722860   3.596116   1.777212   1.755945   0.000000
    36  H    3.671649   4.208358   3.007681   3.619791   2.383177
    37  H    3.060959   3.761909   3.716463   4.212856   3.622452
    38  H    2.454521   3.655966   2.525239   3.713301   3.048307
                   36         37         38
    36  H    0.000000
    37  H    1.750665   0.000000
    38  H    1.773664   1.777985   0.000000
 Stoichiometry    C12H21NO4
 Framework group  C1[X(C12H21NO4)]
 Deg. of freedom   108
 Full point group                 C1      NOp   1
 Largest Abelian subgroup         C1      NOp   1
 Largest concise Abelian subgroup C1      NOp   1
                         Standard orientation:                         
 ---------------------------------------------------------------------
 Center     Atomic      Atomic             Coordinates (Angstroms)
 Number     Number       Type             X           Y           Z
 ---------------------------------------------------------------------
      1          6           0       -5.062430   -1.240682    1.400042
      2          6           0       -4.748916   -0.785517    0.010258
      3          6           0       -5.691027   -0.395378   -0.864384
      4          6           0       -3.336416   -0.718045   -0.433030
      5          8           0       -2.947137   -0.422507   -1.548107
      6          8           0       -2.486617   -0.958758    0.578192
      7          1           0       -6.139120   -1.216148    1.600958
      8          1           0       -4.578965   -0.593512    2.139542
      9          1           0       -4.720972   -2.269111    1.555520
     10          1           0       -6.743562   -0.397505   -0.602911
     11          1           0       -5.432404   -0.056124   -1.864636
     12          1           0       -1.618236   -0.645673    0.229180
     13          6           0        5.527613    0.759316    0.211960
     14          6           0        4.936744   -0.611685    0.102981
     15          6           0        5.664785   -1.730128    0.261338
     16          6           0        3.480635   -0.761127   -0.185986
     17          8           0        2.894271   -1.831486   -0.224220
     18          8           0        2.928289    0.459060   -0.392011
     19          6           0        1.519759    0.491127   -0.688119
     20          6           0        0.801756    1.263093    0.428785
     21          7           0       -0.663287    1.336097    0.260354
     22          6           0       -1.276818    1.878029    1.481399
     23          6           0       -1.024621    2.199674   -0.874468
     24          1           0        6.596852    0.724016    0.447291
     25          1           0        5.035878    1.328600    1.007753
     26          1           0        5.417267    1.304468   -0.731209
     27          1           0        6.727613   -1.690148    0.475956
     28          1           0        5.218202   -2.718366    0.179553
     29          1           0        1.086148   -0.509274   -0.797066
     30          1           0        1.418035    1.003649   -1.649171
     31          1           0        1.241230    2.265793    0.523175
     32          1           0        1.032324    0.751418    1.372913
     33          1           0       -0.910090    2.882655    1.720865
     34          1           0       -1.075853    1.220679    2.334316
     35          1           0       -2.366836    1.925197    1.374963
     36          1           0       -2.113810    2.278097   -0.968320
     37          1           0       -0.667158    1.782839   -1.820814
     38          1           0       -0.620360    3.213235   -0.765821
 ---------------------------------------------------------------------
 Rotational constants (GHZ):           0.9439919           0.1491909           0.1405937
 Standard basis: 6-311++G(d,p) (5D, 7F)
 There are   538 symmetry adapted cartesian basis functions of A   symmetry.
 There are   521 symmetry adapted basis functions of A   symmetry.
   521 basis functions,   801 primitive gaussians,   538 cartesian basis functions
    66 alpha electrons       66 beta electrons
       nuclear repulsion energy      1204.4738769264 Hartrees.
 NAtoms=   38 NActive=   38 NUniq=   38 SFac= 1.00D+00 NAtFMM=   60 NAOKFM=F Big=F
 Integral buffers will be    131072 words long.
 Raffenetti 2 integral format.
 Two-electron integral symmetry is turned on.
 Nuclear repulsion after empirical dispersion term =     1204.4141624441 Hartrees.
 One-electron integrals computed using PRISM.
 NBasis=   521 RedAO= T EigKep=  5.73D-06  NBF=   521
 NBsUse=   521 1.00D-06 EigRej= -1.00D+00 NBFU=   521
 ExpMin= 3.60D-02 ExpMax= 8.59D+03 ExpMxC= 1.30D+03 IAcc=3 IRadAn=         5 AccDes= 0.00D+00
 Harris functional with IExCor=  402 and IRadAn=       5 diagonalized for initial guess.
 HarFok:  IExCor=  402 AccDes= 0.00D+00 IRadAn=         5 IDoV= 1 UseB2=F ITyADJ=14
 ICtDFT=  3500011 ScaDFX=  1.000000  1.000000  1.000000  1.000000
 FoFCou: FMM=F IPFlag=           0 FMFlag=      100000 FMFlg1=           0
         NFxFlg=           0 DoJE=T BraDBF=F KetDBF=T FulRan=T
         wScrn=  0.000000 ICntrl=       500 IOpCl=  0 I1Cent=   200000004 NGrid=           0
         NMat0=    1 NMatS0=      1 NMatT0=    0 NMatD0=    1 NMtDS0=    0 NMtDT0=    0
 Petite list used in FoFCou.
 Requested convergence on RMS density matrix=1.00D-08 within 128 cycles.
 Requested convergence on MAX density matrix=1.00D-06.
 Requested convergence on             energy=1.00D-06.
 No special actions if energy rises.
 SCF Done:  E(RB3LYP) =  -825.856154533     A.U. after   14 cycles
            NFock= 14  Conv=0.75D-08     -V/T= 2.0043
 SCF density gives NOpUse=  1 NOpAll=  1.

 **********************************************************************

            Population analysis using the SCF density.

 **********************************************************************

 Orbital symmetries:
 BldTbl:  Degeneracy threshold= 1.00D-02
       Occupied  (A) (A) (A) (A) (A) (A) (A) (A) (A) (A) (A) (A)
                 (A) (A) (A) (A) (A) (A) (A) (A) (A) (A) (A) (A)
                 (A) (A) (A) (A) (A) (A) (A) (A) (A) (A) (A) (A)
                 (A) (A) (A) (A) (A) (A) (A) (A) (A) (A) (A) (A)
                 (A) (A) (A) (A) (A) (A) (A) (A) (A) (A) (A) (A)
                 (A) (A) (A) (A) (A) (A)
       Virtual   (A) (A) (A) (A) (A) (A) (A) (A) (A) (A) (A) (A)
                 (A) (A) (A) (A) (A) (A) (A) (A) (A) (A) (A) (A)
                 (A) (A) (A) (A) (A) (A) (A) (A) (A) (A) (A) (A)
                 (A) (A) (A) (A) (A) (A) (A) (A) (A) (A) (A) (A)
                 (A) (A) (A) (A) (A) (A) (A) (A) (A) (A) (A) (A)
                 (A) (A) (A) (A) (A) (A) (A) (A) (A) (A) (A) (A)
                 (A) (A) (A) (A) (A) (A) (A) (A) (A) (A) (A) (A)
                 (A) (A) (A) (A) (A) (A) (A) (A) (A) (A) (A) (A)
                 (A) (A) (A) (A) (A) (A) (A) (A) (A) (A) (A) (A)
                 (A) (A) (A) (A) (A) (A) (A) (A) (A) (A) (A) (A)
                 (A) (A) (A) (A) (A) (A) (A) (A) (A) (A) (A) (A)
                 (A) (A) (A) (A) (A) (A) (A) (A) (A) (A) (A) (A)
                 (A) (A) (A) (A) (A) (A) (A) (A) (A) (A) (A) (A)
                 (A) (A) (A) (A) (A) (A) (A) (A) (A) (A) (A) (A)
                 (A) (A) (A) (A) (A) (A) (A) (A) (A) (A) (A) (A)
                 (A) (A) (A) (A) (A) (A) (A) (A) (A) (A) (A) (A)
                 (A) (A) (A) (A) (A) (A) (A) (A) (A) (A) (A) (A)
                 (A) (A) (A) (A) (A) (A) (A) (A) (A) (A) (A) (A)
                 (A) (A) (A) (A) (A) (A) (A) (A) (A) (A) (A) (A)
                 (A) (A) (A) (A) (A) (A) (A) (A) (A) (A) (A) (A)
                 (A) (A) (A) (A) (A) (A) (A) (A) (A) (A) (A) (A)
                 (A) (A) (A) (A) (A) (A) (A) (A) (A) (A) (A) (A)
                 (A) (A) (A) (A) (A) (A) (A) (A) (A) (A) (A) (A)
                 (A) (A) (A) (A) (A) (A) (A) (A) (A) (A) (A) (A)
                 (A) (A) (A) (A) (A) (A) (A) (A) (A) (A) (A) (A)
                 (A) (A) (A) (A) (A) (A) (A) (A) (A) (A) (A) (A)
                 (A) (A) (A) (A) (A) (A) (A) (A) (A) (A) (A) (A)
                 (A) (A) (A) (A) (A) (A) (A) (A) (A) (A) (A) (A)
                 (A) (A) (A) (A) (A) (A) (A) (A) (A) (A) (A) (A)
                 (A) (A) (A) (A) (A) (A) (A) (A) (A) (A) (A) (A)
                 (A) (A) (A) (A) (A) (A) (A) (A) (A) (A) (A) (A)
                 (A) (A) (A) (A) (A) (A) (A) (A) (A) (A) (A) (A)
                 (A) (A) (A) (A) (A) (A) (A) (A) (A) (A) (A) (A)
                 (A) (A) (A) (A) (A) (A) (A) (A) (A) (A) (A) (A)
                 (A) (A) (A) (A) (A) (A) (A) (A) (A) (A) (A) (A)
                 (A) (A) (A) (A) (A) (A) (A) (A) (A) (A) (A) (A)
                 (A) (A) (A) (A) (A) (A) (A) (A) (A) (A) (A) (A)
                 (A) (A) (A) (A) (A) (A) (A) (A) (A) (A) (A)
 The electronic state is 1-A.
 Alpha  occ. eigenvalues --  -19.18125 -19.15998 -19.11510 -19.10499 -14.33215
 Alpha  occ. eigenvalues --  -10.30983 -10.30030 -10.23600 -10.21146 -10.20107
 Alpha  occ. eigenvalues --  -10.19930 -10.19821 -10.19448 -10.18513 -10.18371
 Alpha  occ. eigenvalues --  -10.17569 -10.17376  -1.11421  -1.10575  -1.02670
 Alpha  occ. eigenvalues --   -1.01062  -0.93853  -0.82453  -0.81924  -0.77383
 Alpha  occ. eigenvalues --   -0.71628  -0.70191  -0.70042  -0.69005  -0.66071
 Alpha  occ. eigenvalues --   -0.62411  -0.59744  -0.56302  -0.55289  -0.51229
 Alpha  occ. eigenvalues --   -0.49987  -0.49646  -0.48796  -0.48460  -0.48381
 Alpha  occ. eigenvalues --   -0.47003  -0.46471  -0.45277  -0.44626  -0.43248
 Alpha  occ. eigenvalues --   -0.43135  -0.42183  -0.41911  -0.41229  -0.41090
 Alpha  occ. eigenvalues --   -0.40545  -0.39264  -0.38835  -0.38294  -0.38091
 Alpha  occ. eigenvalues --   -0.37409  -0.36915  -0.36789  -0.35489  -0.32141
 Alpha  occ. eigenvalues --   -0.31356  -0.28894  -0.27971  -0.27631  -0.27445
 Alpha  occ. eigenvalues --   -0.24839
 Alpha virt. eigenvalues --   -0.05883  -0.05573  -0.01439  -0.00684   0.00144
 Alpha virt. eigenvalues --    0.00594   0.01176   0.01479   0.01918   0.02453
 Alpha virt. eigenvalues --    0.02550   0.03367   0.03451   0.03841   0.04197
 Alpha virt. eigenvalues --    0.04428   0.04790   0.05229   0.05569   0.06314
 Alpha virt. eigenvalues --    0.06609   0.06679   0.06800   0.07169   0.07621
 Alpha virt. eigenvalues --    0.08114   0.08359   0.08929   0.09084   0.09212
 Alpha virt. eigenvalues --    0.09738   0.09985   0.10657   0.10768   0.10961
 Alpha virt. eigenvalues --    0.11239   0.11705   0.11907   0.12015   0.12606
 Alpha virt. eigenvalues --    0.12624   0.13042   0.13053   0.13172   0.13638
 Alpha virt. eigenvalues --    0.13712   0.13763   0.14052   0.14208   0.14295
 Alpha virt. eigenvalues --    0.14648   0.14697   0.14997   0.15224   0.15659
 Alpha virt. eigenvalues --    0.15737   0.15963   0.16279   0.16475   0.16758
 Alpha virt. eigenvalues --    0.17010   0.17739   0.17876   0.18215   0.18413
 Alpha virt. eigenvalues --    0.18657   0.18840   0.19510   0.19661   0.19804
 Alpha virt. eigenvalues --    0.20212   0.20404   0.21368   0.21438   0.21912
 Alpha virt. eigenvalues --    0.22077   0.22606   0.22815   0.23243   0.23575
 Alpha virt. eigenvalues --    0.23847   0.24102   0.24331   0.24840   0.25641
 Alpha virt. eigenvalues --    0.25729   0.26036   0.26243   0.26846   0.27190
 Alpha virt. eigenvalues --    0.27949   0.28729   0.28944   0.29840   0.30469
 Alpha virt. eigenvalues --    0.30730   0.30977   0.31343   0.31623   0.31872
 Alpha virt. eigenvalues --    0.32523   0.32840   0.33056   0.33548   0.33877
 Alpha virt. eigenvalues --    0.34395   0.35207   0.35691   0.35807   0.36131
 Alpha virt. eigenvalues --    0.36301   0.36387   0.36824   0.37437   0.37813
 Alpha virt. eigenvalues --    0.38571   0.39301   0.39825   0.40803   0.40979
 Alpha virt. eigenvalues --    0.41813   0.42081   0.42628   0.43161   0.43583
 Alpha virt. eigenvalues --    0.45619   0.45857   0.46175   0.46703   0.47822
 Alpha virt. eigenvalues --    0.48170   0.50012   0.50995   0.51824   0.52561
 Alpha virt. eigenvalues --    0.52956   0.53466   0.54516   0.55630   0.56083
 Alpha virt. eigenvalues --    0.57386   0.57639   0.58500   0.58845   0.59698
 Alpha virt. eigenvalues --    0.60461   0.60847   0.61310   0.62134   0.62717
 Alpha virt. eigenvalues --    0.62844   0.63812   0.64890   0.65165   0.65892
 Alpha virt. eigenvalues --    0.65922   0.66274   0.66637   0.66755   0.67596
 Alpha virt. eigenvalues --    0.68005   0.68643   0.69697   0.70234   0.70373
 Alpha virt. eigenvalues --    0.71041   0.71810   0.72446   0.73109   0.73661
 Alpha virt. eigenvalues --    0.74346   0.75185   0.76100   0.76741   0.77055
 Alpha virt. eigenvalues --    0.77579   0.78353   0.78821   0.79759   0.80718
 Alpha virt. eigenvalues --    0.81302   0.83652   0.85868   0.86628   0.86859
 Alpha virt. eigenvalues --    0.88489   0.90915   0.91192   0.92042   0.92299
 Alpha virt. eigenvalues --    0.93204   0.93861   0.94977   0.96160   0.97456
 Alpha virt. eigenvalues --    0.99086   0.99120   1.00229   1.00704   1.01545
 Alpha virt. eigenvalues --    1.03617   1.04790   1.06186   1.07381   1.08986
 Alpha virt. eigenvalues --    1.10263   1.10937   1.12557   1.13564   1.16090
 Alpha virt. eigenvalues --    1.16392   1.17794   1.18289   1.19262   1.20977
 Alpha virt. eigenvalues --    1.22213   1.22592   1.23310   1.23912   1.25952
 Alpha virt. eigenvalues --    1.26924   1.28791   1.30799   1.31871   1.33667
 Alpha virt. eigenvalues --    1.34252   1.37008   1.38867   1.40168   1.40383
 Alpha virt. eigenvalues --    1.40859   1.42996   1.43823   1.45799   1.45984
 Alpha virt. eigenvalues --    1.46119   1.47131   1.48177   1.48684   1.48981
 Alpha virt. eigenvalues --    1.51221   1.51759   1.52954   1.53220   1.53705
 Alpha virt. eigenvalues --    1.54483   1.56826   1.57019   1.57511   1.58307
 Alpha virt. eigenvalues --    1.59391   1.59412   1.59968   1.60946   1.61109
 Alpha virt. eigenvalues --    1.61616   1.62802   1.62988   1.63809   1.64243
 Alpha virt. eigenvalues --    1.66148   1.67015   1.67369   1.68399   1.69265
 Alpha virt. eigenvalues --    1.70581   1.70773   1.71024   1.71883   1.72828
 Alpha virt. eigenvalues --    1.74140   1.75092   1.76164   1.76881   1.78066
 Alpha virt. eigenvalues --    1.79899   1.81026   1.81937   1.82035   1.84560
 Alpha virt. eigenvalues --    1.84873   1.85430   1.86130   1.86649   1.87954
 Alpha virt. eigenvalues --    1.88855   1.90892   1.92962   1.94127   1.95632
 Alpha virt. eigenvalues --    1.97372   1.99488   2.00796   2.01245   2.02036
 Alpha virt. eigenvalues --    2.04558   2.05938   2.07155   2.07819   2.08105
 Alpha virt. eigenvalues --    2.08848   2.10638   2.11907   2.12281   2.13803
 Alpha virt. eigenvalues --    2.15587   2.17744   2.19286   2.19529   2.20736
 Alpha virt. eigenvalues --    2.20994   2.25075   2.26979   2.27609   2.29901
 Alpha virt. eigenvalues --    2.33983   2.35139   2.35615   2.36371   2.41118
 Alpha virt. eigenvalues --    2.44243   2.45902   2.46062   2.46710   2.47198
 Alpha virt. eigenvalues --    2.48194   2.48858   2.49699   2.50668   2.51277
 Alpha virt. eigenvalues --    2.52784   2.53047   2.54431   2.54601   2.55289
 Alpha virt. eigenvalues --    2.55953   2.56241   2.56746   2.58001   2.60233
 Alpha virt. eigenvalues --    2.60981   2.62529   2.65395   2.66260   2.66924
 Alpha virt. eigenvalues --    2.68260   2.68567   2.70162   2.70363   2.71900
 Alpha virt. eigenvalues --    2.72760   2.74373   2.74535   2.74760   2.76314
 Alpha virt. eigenvalues --    2.76824   2.78044   2.79272   2.80850   2.81308
 Alpha virt. eigenvalues --    2.82525   2.84939   2.86624   2.87317   2.88259
 Alpha virt. eigenvalues --    2.88521   2.90547   2.92242   2.94517   2.96397
 Alpha virt. eigenvalues --    2.97120   2.97581   2.97985   2.99860   3.01113
 Alpha virt. eigenvalues --    3.03433   3.04170   3.05360   3.06111   3.08633
 Alpha virt. eigenvalues --    3.11919   3.14293   3.15544   3.16736   3.20816
 Alpha virt. eigenvalues --    3.21518   3.28981   3.29332   3.30059   3.36790
 Alpha virt. eigenvalues --    3.37186   3.37697   3.41980   3.54880   3.55180
 Alpha virt. eigenvalues --    3.56162   3.58037   3.63081   3.66574   3.71428
 Alpha virt. eigenvalues --    3.72005   3.73134   3.75985   3.76000   3.76575
 Alpha virt. eigenvalues --    3.77981   3.78542   3.79149   3.81016   3.81244
 Alpha virt. eigenvalues --    3.82046   3.82507   3.82739   3.83789   3.84814
 Alpha virt. eigenvalues --    4.02115   4.12848   4.13919   4.18755   4.28554
 Alpha virt. eigenvalues --    4.28692   4.32785   4.33156   4.34843   4.82339
 Alpha virt. eigenvalues --    4.83489   5.05884   5.06434   5.07758   5.10424
 Alpha virt. eigenvalues --    5.21491   5.23090   5.38739   5.44795   5.64305
 Alpha virt. eigenvalues --    5.68327   5.87402   5.88131  23.71690  23.72051
 Alpha virt. eigenvalues --   23.82925  23.85233  23.85962  23.90333  23.95059
 Alpha virt. eigenvalues --   23.95917  23.96940  23.97009  24.20322  24.20550
 Alpha virt. eigenvalues --   35.50929  49.89137  49.89957  50.02190  50.04029
          Condensed to atoms (all electrons):
               1          2          3          4          5          6
     1  C    6.145297   0.419982  -0.542372  -0.520189  -0.012896  -0.039399
     2  C    0.419982   8.502720  -0.830549  -2.088166  -0.195753  -0.444312
     3  C   -0.542372  -0.830549   6.542240   0.527927   0.119556   0.065389
     4  C   -0.520189  -2.088166   0.527927   7.799365   0.429013   0.279943
     5  O   -0.012896  -0.195753   0.119556   0.429013   8.068560  -0.142341
     6  O   -0.039399  -0.444312   0.065389   0.279943  -0.142341   8.126833
     7  H    0.401358  -0.035731   0.010731  -0.045620   0.001965   0.004142
     8  H    0.381684  -0.043050  -0.007914   0.019175  -0.004184  -0.008134
     9  H    0.396301   0.016554  -0.015939  -0.026973  -0.001381  -0.011028
    10  H   -0.018782  -0.087228   0.395022   0.060430   0.000255  -0.001809
    11  H    0.018021  -0.000587   0.333174   0.008762  -0.006195  -0.002630
    12  H   -0.021498  -0.026180  -0.003979  -0.011736  -0.000806   0.278605
    13  C    0.000013   0.000157  -0.000003   0.000288   0.000004  -0.000043
    14  C    0.000153   0.001177   0.000006   0.002816   0.000291   0.000243
    15  C   -0.000015  -0.000014   0.000012   0.000251   0.000016  -0.000049
    16  C   -0.000080   0.002840   0.000346   0.004113   0.002713  -0.002401
    17  O    0.000007   0.000098   0.000013  -0.000957   0.000039   0.000266
    18  O   -0.000019   0.000347   0.000044   0.001417  -0.000083  -0.000636
    19  C   -0.006287  -0.027879   0.003391  -0.019045   0.005952   0.007436
    20  C    0.019582   0.087320  -0.009420   0.004211  -0.008472  -0.039147
    21  N   -0.005677  -0.047876   0.003295   0.001455  -0.009018   0.005518
    22  C   -0.026168  -0.000635   0.010798   0.034389   0.011281   0.006618
    23  C    0.005859   0.031810  -0.014701  -0.075502   0.016063   0.022068
    24  H    0.000001   0.000006  -0.000000   0.000010   0.000000  -0.000001
    25  H    0.000003  -0.000008  -0.000002  -0.000069  -0.000005   0.000014
    26  H   -0.000001  -0.000006   0.000001   0.000021  -0.000001  -0.000005
    27  H   -0.000001  -0.000002   0.000000  -0.000007   0.000000   0.000001
    28  H    0.000004   0.000012  -0.000001   0.000047   0.000004   0.000001
    29  H   -0.001853  -0.024603   0.000654   0.012680  -0.008049  -0.002003
    30  H   -0.000549  -0.004306   0.000370  -0.008495  -0.000764   0.004653
    31  H    0.000772   0.001777  -0.000384   0.007337  -0.000174  -0.004999
    32  H   -0.001023  -0.004643   0.001317   0.001655   0.000657   0.003859
    33  H    0.000031   0.002047  -0.000891  -0.005996  -0.000259   0.006395
    34  H   -0.000134   0.013870  -0.000379  -0.003699  -0.000354  -0.017534
    35  H    0.010527   0.001987   0.001593  -0.003051   0.000294   0.000981
    36  H   -0.002797  -0.022519  -0.008342   0.039335  -0.014449   0.001251
    37  H    0.003409  -0.000778  -0.001817   0.005397  -0.005992   0.000287
    38  H   -0.002009  -0.000275   0.003351  -0.002721   0.005836  -0.002999
               7          8          9         10         11         12
     1  C    0.401358   0.381684   0.396301  -0.018782   0.018021  -0.021498
     2  C   -0.035731  -0.043050   0.016554  -0.087228  -0.000587  -0.026180
     3  C    0.010731  -0.007914  -0.015939   0.395022   0.333174  -0.003979
     4  C   -0.045620   0.019175  -0.026973   0.060430   0.008762  -0.011736
     5  O    0.001965  -0.004184  -0.001381   0.000255  -0.006195  -0.000806
     6  O    0.004142  -0.008134  -0.011028  -0.001809  -0.002630   0.278605
     7  H    0.572484  -0.031881  -0.025159  -0.000979   0.002264  -0.000654
     8  H   -0.031881   0.580446  -0.054118   0.002816  -0.002737  -0.000022
     9  H   -0.025159  -0.054118   0.549087   0.001939  -0.001296   0.000680
    10  H   -0.000979   0.002816   0.001939   0.546786  -0.027989   0.001051
    11  H    0.002264  -0.002737  -0.001296  -0.027989   0.478776  -0.001111
    12  H   -0.000654  -0.000022   0.000680   0.001051  -0.001111   0.423971
    13  C    0.000000   0.000004  -0.000001  -0.000000   0.000003  -0.000526
    14  C    0.000006  -0.000053   0.000011  -0.000001   0.000007  -0.004081
    15  C    0.000000  -0.000003   0.000001   0.000000  -0.000001  -0.000526
    16  C    0.000026  -0.000211   0.000051  -0.000008   0.000029  -0.003472
    17  O    0.000001  -0.000001  -0.000007  -0.000000  -0.000000   0.000047
    18  O   -0.000000   0.000019  -0.000001  -0.000000   0.000012  -0.001331
    19  C   -0.000024  -0.000445  -0.000193   0.000036  -0.000565   0.022076
    20  C    0.000097   0.002375   0.000162  -0.000056   0.001987  -0.018895
    21  N    0.000080  -0.000247  -0.000325  -0.000048  -0.000622  -0.004456
    22  C    0.000065  -0.001091   0.000660   0.000305  -0.001042   0.008904
    23  C    0.000697   0.000799  -0.000935  -0.001301   0.002504   0.005551
    24  H    0.000000   0.000000  -0.000000  -0.000000   0.000000  -0.000035
    25  H    0.000000   0.000000   0.000000  -0.000000   0.000000   0.000003
    26  H   -0.000000  -0.000000   0.000000   0.000000  -0.000000   0.000059
    27  H   -0.000000  -0.000000   0.000000   0.000000  -0.000000   0.000017
    28  H    0.000000  -0.000001   0.000000  -0.000000   0.000000  -0.000076
    29  H   -0.000130   0.000396  -0.000081   0.000032  -0.000186  -0.007710
    30  H    0.000010  -0.000006  -0.000058  -0.000021  -0.000099   0.003425
    31  H   -0.000020   0.000035   0.000071   0.000011   0.000047  -0.004073
    32  H   -0.000012   0.000240  -0.000214   0.000014  -0.000066  -0.005883
    33  H    0.000271  -0.000573  -0.000104  -0.000078  -0.000084  -0.003209
    34  H   -0.000194   0.000128   0.000766   0.000034   0.000200   0.000858
    35  H    0.000438  -0.002726  -0.000507  -0.000756   0.001420   0.003297
    36  H   -0.000525   0.001110   0.000347   0.000684  -0.002473   0.000279
    37  H   -0.000031  -0.000105   0.000071   0.000231  -0.000369  -0.000632
    38  H    0.000048  -0.000129  -0.000040  -0.000111   0.000188  -0.001036
              13         14         15         16         17         18
     1  C    0.000013   0.000153  -0.000015  -0.000080   0.000007  -0.000019
     2  C    0.000157   0.001177  -0.000014   0.002840   0.000098   0.000347
     3  C   -0.000003   0.000006   0.000012   0.000346   0.000013   0.000044
     4  C    0.000288   0.002816   0.000251   0.004113  -0.000957   0.001417
     5  O    0.000004   0.000291   0.000016   0.002713   0.000039  -0.000083
     6  O   -0.000043   0.000243  -0.000049  -0.002401   0.000266  -0.000636
     7  H    0.000000   0.000006   0.000000   0.000026   0.000001  -0.000000
     8  H    0.000004  -0.000053  -0.000003  -0.000211  -0.000001   0.000019
     9  H   -0.000001   0.000011   0.000001   0.000051  -0.000007  -0.000001
    10  H   -0.000000  -0.000001   0.000000  -0.000008  -0.000000  -0.000000
    11  H    0.000003   0.000007  -0.000001   0.000029  -0.000000   0.000012
    12  H   -0.000526  -0.004081  -0.000526  -0.003472   0.000047  -0.001331
    13  C    6.187100   0.158206  -0.213095  -0.527996   0.007390  -0.004810
    14  C    0.158206   8.533902  -0.311537  -2.160912  -0.104429  -0.611365
    15  C   -0.213095  -0.311537   6.021741   0.352912   0.062223   0.034765
    16  C   -0.527996  -2.160912   0.352912   8.162989   0.426422   0.258801
    17  O    0.007390  -0.104429   0.062223   0.426422   8.049250  -0.156986
    18  O   -0.004810  -0.611365   0.034765   0.258801  -0.156986   8.351650
    19  C   -0.199354  -0.154867  -0.025951  -0.065934   0.049050   0.198519
    20  C    0.078111  -0.161729  -0.030555  -0.031328  -0.089096   0.015175
    21  N   -0.008070   0.009478   0.000798   0.016355   0.003021  -0.004440
    22  C   -0.000015  -0.001300   0.000501   0.002846  -0.000384   0.004003
    23  C   -0.005651  -0.008918  -0.001642  -0.017473   0.000381  -0.011172
    24  H    0.407126  -0.087345   0.025425  -0.015782   0.002158   0.005192
    25  H    0.374270  -0.027601  -0.015069   0.018974  -0.001639  -0.009683
    26  H    0.379494   0.016740  -0.022189  -0.018313  -0.001985  -0.002751
    27  H   -0.046884  -0.056984   0.403290   0.061229  -0.001168  -0.004845
    28  H    0.019625  -0.041809   0.359382   0.026312  -0.003773  -0.002374
    29  H   -0.011281  -0.016561   0.015999   0.049241   0.017110  -0.032729
    30  H    0.012047  -0.005403  -0.007987  -0.012988   0.002283  -0.076197
    31  H   -0.007606   0.008657   0.003405   0.015929  -0.002503   0.005220
    32  H   -0.003687  -0.015484   0.003148  -0.016572  -0.002415   0.015082
    33  H   -0.000202  -0.000970  -0.000196   0.000588  -0.000043   0.000163
    34  H    0.000534   0.002730   0.000030   0.000194   0.000572  -0.000401
    35  H   -0.000097   0.000017   0.000069   0.000864   0.000017   0.000450
    36  H   -0.000129  -0.000590  -0.000107  -0.000651  -0.000063  -0.000770
    37  H   -0.000401   0.006896   0.000811   0.001818   0.001401  -0.002708
    38  H   -0.000408  -0.000661   0.000158   0.003962   0.000038   0.002363
              19         20         21         22         23         24
     1  C   -0.006287   0.019582  -0.005677  -0.026168   0.005859   0.000001
     2  C   -0.027879   0.087320  -0.047876  -0.000635   0.031810   0.000006
     3  C    0.003391  -0.009420   0.003295   0.010798  -0.014701  -0.000000
     4  C   -0.019045   0.004211   0.001455   0.034389  -0.075502   0.000010
     5  O    0.005952  -0.008472  -0.009018   0.011281   0.016063   0.000000
     6  O    0.007436  -0.039147   0.005518   0.006618   0.022068  -0.000001
     7  H   -0.000024   0.000097   0.000080   0.000065   0.000697   0.000000
     8  H   -0.000445   0.002375  -0.000247  -0.001091   0.000799   0.000000
     9  H   -0.000193   0.000162  -0.000325   0.000660  -0.000935  -0.000000
    10  H    0.000036  -0.000056  -0.000048   0.000305  -0.001301  -0.000000
    11  H   -0.000565   0.001987  -0.000622  -0.001042   0.002504   0.000000
    12  H    0.022076  -0.018895  -0.004456   0.008904   0.005551  -0.000035
    13  C   -0.199354   0.078111  -0.008070  -0.000015  -0.005651   0.407126
    14  C   -0.154867  -0.161729   0.009478  -0.001300  -0.008918  -0.087345
    15  C   -0.025951  -0.030555   0.000798   0.000501  -0.001642   0.025425
    16  C   -0.065934  -0.031328   0.016355   0.002846  -0.017473  -0.015782
    17  O    0.049050  -0.089096   0.003021  -0.000384   0.000381   0.002158
    18  O    0.198519   0.015175  -0.004440   0.004003  -0.011172   0.005192
    19  C    6.886475  -1.061692   0.054489  -0.080654   0.093693  -0.000640
    20  C   -1.061692   7.814315  -0.228218  -0.224871  -0.327690   0.001041
    21  N    0.054489  -0.228218   7.123548   0.253650   0.297536  -0.000181
    22  C   -0.080654  -0.224871   0.253650   5.427421  -0.209943   0.000002
    23  C    0.093693  -0.327690   0.297536  -0.209943   5.386517  -0.000151
    24  H   -0.000640   0.001041  -0.000181   0.000002  -0.000151   0.561698
    25  H    0.024887  -0.013067  -0.001616  -0.001867  -0.000126  -0.026970
    26  H   -0.015224   0.015185   0.000549   0.000699   0.000276  -0.028920
    27  H    0.004683  -0.002018   0.000145   0.000002   0.000093   0.002630
    28  H   -0.008470   0.000996  -0.000122  -0.000005  -0.000205   0.001405
    29  H    0.346693  -0.118075   0.036064  -0.003655   0.003414   0.000067
    30  H    0.478533  -0.135307  -0.000904   0.003295   0.001889   0.000113
    31  H   -0.115342   0.420106  -0.067544  -0.014193  -0.010511  -0.000116
    32  H   -0.028192   0.394142  -0.060599  -0.004518   0.010435   0.000033
    33  H    0.019041  -0.028300  -0.059646   0.373460   0.017074  -0.000014
    34  H   -0.018580   0.058306  -0.076775   0.394305   0.000960   0.000025
    35  H   -0.005843   0.010712  -0.067010   0.424135  -0.016725   0.000001
    36  H    0.002153   0.020205  -0.054191  -0.010171   0.403791  -0.000009
    37  H    0.015726   0.033142  -0.069032   0.015088   0.354321   0.000042
    38  H    0.025613  -0.062622  -0.069170  -0.029330   0.427983  -0.000000
              25         26         27         28         29         30
     1  C    0.000003  -0.000001  -0.000001   0.000004  -0.001853  -0.000549
     2  C   -0.000008  -0.000006  -0.000002   0.000012  -0.024603  -0.004306
     3  C   -0.000002   0.000001   0.000000  -0.000001   0.000654   0.000370
     4  C   -0.000069   0.000021  -0.000007   0.000047   0.012680  -0.008495
     5  O   -0.000005  -0.000001   0.000000   0.000004  -0.008049  -0.000764
     6  O    0.000014  -0.000005   0.000001   0.000001  -0.002003   0.004653
     7  H    0.000000  -0.000000  -0.000000   0.000000  -0.000130   0.000010
     8  H    0.000000  -0.000000  -0.000000  -0.000001   0.000396  -0.000006
     9  H    0.000000   0.000000   0.000000   0.000000  -0.000081  -0.000058
    10  H   -0.000000   0.000000   0.000000  -0.000000   0.000032  -0.000021
    11  H    0.000000  -0.000000  -0.000000   0.000000  -0.000186  -0.000099
    12  H    0.000003   0.000059   0.000017  -0.000076  -0.007710   0.003425
    13  C    0.374270   0.379494  -0.046884   0.019625  -0.011281   0.012047
    14  C   -0.027601   0.016740  -0.056984  -0.041809  -0.016561  -0.005403
    15  C   -0.015069  -0.022189   0.403290   0.359382   0.015999  -0.007987
    16  C    0.018974  -0.018313   0.061229   0.026312   0.049241  -0.012988
    17  O   -0.001639  -0.001985  -0.001168  -0.003773   0.017110   0.002283
    18  O   -0.009683  -0.002751  -0.004845  -0.002374  -0.032729  -0.076197
    19  C    0.024887  -0.015224   0.004683  -0.008470   0.346693   0.478533
    20  C   -0.013067   0.015185  -0.002018   0.000996  -0.118075  -0.135307
    21  N   -0.001616   0.000549   0.000145  -0.000122   0.036064  -0.000904
    22  C   -0.001867   0.000699   0.000002  -0.000005  -0.003655   0.003295
    23  C   -0.000126   0.000276   0.000093  -0.000205   0.003414   0.001889
    24  H   -0.026970  -0.028920   0.002630   0.001405   0.000067   0.000113
    25  H    0.582438  -0.060561   0.000526  -0.001758   0.000368   0.002063
    26  H   -0.060561   0.569556   0.002175  -0.001923  -0.001558  -0.002765
    27  H    0.000526   0.002175   0.528951  -0.028111   0.000387  -0.000351
    28  H   -0.001758  -0.001923  -0.028111   0.474304   0.000297   0.000441
    29  H    0.000368  -0.001558   0.000387   0.000297   0.566731  -0.052497
    30  H    0.002063  -0.002765  -0.000351   0.000441  -0.052497   0.639601
    31  H   -0.000413   0.000693   0.000078   0.000005   0.015112  -0.026285
    32  H   -0.002099   0.000408   0.000054  -0.000426  -0.001573   0.011385
    33  H   -0.000096   0.000042   0.000007  -0.000016   0.002285   0.002163
    34  H    0.000315  -0.000113  -0.000018   0.000058  -0.003244   0.000125
    35  H   -0.000060   0.000031  -0.000001   0.000003  -0.000886   0.000918
    36  H    0.000020  -0.000002   0.000005  -0.000010   0.001654  -0.001687
    37  H   -0.000040  -0.000113   0.000008   0.000030  -0.003166  -0.010222
    38  H   -0.000003  -0.000067   0.000006  -0.000010   0.004450   0.004070
              31         32         33         34         35         36
     1  C    0.000772  -0.001023   0.000031  -0.000134   0.010527  -0.002797
     2  C    0.001777  -0.004643   0.002047   0.013870   0.001987  -0.022519
     3  C   -0.000384   0.001317  -0.000891  -0.000379   0.001593  -0.008342
     4  C    0.007337   0.001655  -0.005996  -0.003699  -0.003051   0.039335
     5  O   -0.000174   0.000657  -0.000259  -0.000354   0.000294  -0.014449
     6  O   -0.004999   0.003859   0.006395  -0.017534   0.000981   0.001251
     7  H   -0.000020  -0.000012   0.000271  -0.000194   0.000438  -0.000525
     8  H    0.000035   0.000240  -0.000573   0.000128  -0.002726   0.001110
     9  H    0.000071  -0.000214  -0.000104   0.000766  -0.000507   0.000347
    10  H    0.000011   0.000014  -0.000078   0.000034  -0.000756   0.000684
    11  H    0.000047  -0.000066  -0.000084   0.000200   0.001420  -0.002473
    12  H   -0.004073  -0.005883  -0.003209   0.000858   0.003297   0.000279
    13  C   -0.007606  -0.003687  -0.000202   0.000534  -0.000097  -0.000129
    14  C    0.008657  -0.015484  -0.000970   0.002730   0.000017  -0.000590
    15  C    0.003405   0.003148  -0.000196   0.000030   0.000069  -0.000107
    16  C    0.015929  -0.016572   0.000588   0.000194   0.000864  -0.000651
    17  O   -0.002503  -0.002415  -0.000043   0.000572   0.000017  -0.000063
    18  O    0.005220   0.015082   0.000163  -0.000401   0.000450  -0.000770
    19  C   -0.115342  -0.028192   0.019041  -0.018580  -0.005843   0.002153
    20  C    0.420106   0.394142  -0.028300   0.058306   0.010712   0.020205
    21  N   -0.067544  -0.060599  -0.059646  -0.076775  -0.067010  -0.054191
    22  C   -0.014193  -0.004518   0.373460   0.394305   0.424135  -0.010171
    23  C   -0.010511   0.010435   0.017074   0.000960  -0.016725   0.403791
    24  H   -0.000116   0.000033  -0.000014   0.000025   0.000001  -0.000009
    25  H   -0.000413  -0.002099  -0.000096   0.000315  -0.000060   0.000020
    26  H    0.000693   0.000408   0.000042  -0.000113   0.000031  -0.000002
    27  H    0.000078   0.000054   0.000007  -0.000018  -0.000001   0.000005
    28  H    0.000005  -0.000426  -0.000016   0.000058   0.000003  -0.000010
    29  H    0.015112  -0.001573   0.002285  -0.003244  -0.000886   0.001654
    30  H   -0.026285   0.011385   0.002163   0.000125   0.000918  -0.001687
    31  H    0.612657  -0.054052   0.008951   0.004318  -0.004705   0.001607
    32  H   -0.054052   0.575298   0.001957  -0.001143   0.001900  -0.004999
    33  H    0.008951   0.001957   0.625841  -0.053709  -0.057983   0.001589
    34  H    0.004318  -0.001143  -0.053709   0.563648  -0.013743  -0.000630
    35  H   -0.004705   0.001900  -0.057983  -0.013743   0.578255  -0.002634
    36  H    0.001607  -0.004999   0.001589  -0.000630  -0.002634   0.548593
    37  H    0.007291   0.001460  -0.003377  -0.001930  -0.000308  -0.009784
    38  H    0.013378   0.001344   0.022932  -0.000225  -0.004013  -0.048932
              37         38
     1  C    0.003409  -0.002009
     2  C   -0.000778  -0.000275
     3  C   -0.001817   0.003351
     4  C    0.005397  -0.002721
     5  O   -0.005992   0.005836
     6  O    0.000287  -0.002999
     7  H   -0.000031   0.000048
     8  H   -0.000105  -0.000129
     9  H    0.000071  -0.000040
    10  H    0.000231  -0.000111
    11  H   -0.000369   0.000188
    12  H   -0.000632  -0.001036
    13  C   -0.000401  -0.000408
    14  C    0.006896  -0.000661
    15  C    0.000811   0.000158
    16  C    0.001818   0.003962
    17  O    0.001401   0.000038
    18  O   -0.002708   0.002363
    19  C    0.015726   0.025613
    20  C    0.033142  -0.062622
    21  N   -0.069032  -0.069170
    22  C    0.015088  -0.029330
    23  C    0.354321   0.427983
    24  H    0.000042  -0.000000
    25  H   -0.000040  -0.000003
    26  H   -0.000113  -0.000067
    27  H    0.000008   0.000006
    28  H    0.000030  -0.000010
    29  H   -0.003166   0.004450
    30  H   -0.010222   0.004070
    31  H    0.007291   0.013378
    32  H    0.001460   0.001344
    33  H   -0.003377   0.022932
    34  H   -0.001930  -0.000225
    35  H   -0.000308  -0.004013
    36  H   -0.009784  -0.048932
    37  H    0.587462  -0.060564
    38  H   -0.060564   0.633888
 Mulliken charges:
               1
     1  C   -0.601255
     2  C    0.802395
     3  C   -0.582536
     4  C   -0.427809
     5  O   -0.251323
     6  O   -0.095033
     7  H    0.146279
     8  H    0.168405
     9  H    0.171657
    10  H    0.129522
    11  H    0.200657
    12  H    0.373105
    13  C   -0.594114
    14  C    1.031264
    15  C   -0.656001
    16  C   -0.535435
    17  O   -0.256338
    18  O    0.030083
    19  C   -0.403266
    20  C   -0.386609
    21  N    0.029808
    22  C   -0.362585
    23  C   -0.381066
    24  H    0.153191
    25  H    0.158871
    26  H    0.170566
    27  H    0.136105
    28  H    0.206164
    29  H    0.216208
    30  H    0.179505
    31  H    0.185464
    32  H    0.183211
    33  H    0.130906
    34  H    0.150831
    35  H    0.143140
    36  H    0.163837
    37  H    0.136481
    38  H    0.135717
 Sum of Mulliken charges =  -0.00000
 Mulliken charges with hydrogens summed into heavy atoms:
               1
     1  C   -0.114914
     2  C    0.802395
     3  C   -0.252357
     4  C   -0.427809
     5  O   -0.251323
     6  O    0.278072
    13  C   -0.111486
    14  C    1.031264
    15  C   -0.313732
    16  C   -0.535435
    17  O   -0.256338
    18  O    0.030083
    19  C   -0.007553
    20  C   -0.017934
    21  N    0.029808
    22  C    0.062292
    23  C    0.054968
 DipInt: DoE/N= T F RetVal/Mat= T F Init=T NMatP=  1 IDeriv=0 Min/MaxMlt=  0  4
 Entering OneElI...
 OneElI was handed 68718739972 working-precision words.
 Multipole integrals L=0 to 4 MinM= 0 MaxM= 0.
 Requested accuracy = 0.1000D-12
 ShPair: Thresh= 1.00D-13 NBox=     0 BxSize= 0.00D+00 RnKept= 2.57D+01
         NSMCal=                21528 NSMKep=               17222
 PrmmSu-InSpLW:  IPartL=    0 NPrtUS=    1 NPrtUL=    1 DoSpLW=F IThBeg=    0 IThEnd=    0 NThAct=    1.
 PrsmSu:  NPrtUS=   1 ThrOK=F IAlg=1 NPAlg=1 LenDen=           0 ISkipM=0 DoSpLW=F IThBeg=    0 IThEnd=    0.
 Prism:   IPart=     0 DynPar=F LinDyn=F Incr=         172.
 PRISM was handed 68717666192 working-precision words and 17222 shell-pairs
 IPart=  0 NShTot=       17222 NBatch=         285 AvBLen=        60.4
 PrsmSu-ThDecC:  IPartSL=    0    0 NPrtUSL=    1    1 IThBeg=    0 IThEnd=    0 CPU=   -1 GPU=   -1 NThAct=    1.
 PrSmSu:  NxtVal=            173.
 Electronic moments (au):
       -132.00000000          0.11743453          1.21871520          0.76621209
      -6434.20090300       -851.70182755       -437.32345598          1.15398067
         -2.74643162         -1.27258845      -3353.03651158       -605.10311011
       -135.05878375       -566.71124022       6902.82646142       -669.20362323
       1547.08392365       -212.14510293       -295.10187563       -259.37997937
    -580114.84135990     -13055.54592394      -4377.33642372      -7531.89691303
      -7772.87779251       5733.61385097        178.04808121        814.30983574
       -280.33190913     -33042.15067071     -19272.54828334      -3184.52910843
       4669.88359267       1378.13201079      -1458.28044920
 Electronic spatial extent (au):  <R**2>=           7723.2262
 DipInt: DoE/N= F T RetVal/Mat= T F Init=T NMatP=  1 IDeriv=0 Min/MaxMlt=  0  4
 Nuclear    moments (au):
        132.00000000         -0.00000000         -0.00000000          0.00000000
       6372.09835081        771.63919405        357.42616475          0.00000000
          0.00000000          0.00000000       3359.43113296        608.45461976
        136.52169423        558.71271632      -6919.49005752        701.37769173
      -1540.33869953        221.06185399        295.88381134        262.20151359
     560153.55114244       9969.24891626       2810.53243537       7416.05722847
       7894.94819183      -5739.57840799       -199.73898908       -885.32689214
        264.45528405      28616.81508491      15000.54322998       2404.42668085
      -4786.74485268      -1379.12502798       1458.43226557
 Total      moments (au):
         -0.00000000          0.11743453          1.21871520          0.76621209
        -62.10255218        -80.06263350        -79.89729122          1.15398067
         -2.74643162         -1.27258845          6.39462138          3.35150965
          1.46291048         -7.99852390        -16.66359610         32.17406850
          6.74522412          8.91675106          0.78193571          2.82153422
     -19961.29021746      -3086.29700768      -1566.80398834       -115.83968456
        122.07039932         -5.96455702        -21.69090787        -71.01705640
        -15.87662508      -4425.33558580      -4272.00505336       -780.10242757
       -116.86126001         -0.99301719          0.15181637
 Traceless Quadrup. (au):
         11.91827345         -6.04180786         -5.87646559          1.15398067
         -2.74643162         -1.27258845
 Charge=             -0.0000 electrons
 Dipole moment (field-independent basis, Debye):
    X=              0.2985    Y=              3.0977    Z=              1.9475  Tot=              3.6712
 Quadrupole moment (field-independent basis, Debye-Ang):
   XX=            -83.5301   YY=           -107.6870   ZZ=           -107.4646
   XY=              1.5521   XZ=             -3.6940   YZ=             -1.7117
 Traceless Quadrupole moment (field-independent basis, Debye-Ang):
   XX=             16.0305   YY=             -8.1264   ZZ=             -7.9040
   XY=              1.5521   XZ=             -3.6940   YZ=             -1.7117
 Octapole moment (field-independent basis, Debye-Ang**2):
  XXX=              4.5514  YYY=              2.3855  ZZZ=              1.0412  XYY=             -5.6930
  XXY=            -11.8605  XXZ=             22.9003  XZZ=              4.8010  YZZ=              6.3466
  YYZ=              0.5566  XYZ=              2.0083
 Hexadecapole moment (field-independent basis, Debye-Ang**3):
 XXXX=          -7518.3791 YYYY=          -1162.4474 ZZZZ=           -590.1335 XXXY=            -43.6308
 XXXZ=             45.9776 YYYX=             -2.2465 YYYZ=             -8.1698 ZZZX=            -26.7484
 ZZZY=             -5.9799 XXYY=          -1666.7936 XXZZ=          -1609.0420 YYZZ=           -293.8240
 XXYZ=            -44.0156 YYXZ=             -0.3740 ZZXY=              0.0572
 N-N= 1.204414162444D+03 E-N=-4.337109513198D+03  KE= 8.223108813413D+02
 Entering OneElI...
 OneElI was handed 68718901457 working-precision words.
 Calculate electrostatic properties
    NBasis =   521  MinDer = 0  MaxDer = 0
    NGrid  =    38  NMatD  =   1
 Requested accuracy = 0.1000D-12
 ShPair: Thresh= 1.00D-13 NBox=     0 BxSize= 0.00D+00 RnKept= 2.57D+01
         NSMCal=                21528 NSMKep=               15798
 PrmmSu-InSpLW:  IPartL=    0 NPrtUS=  128 NPrtUL=    1 DoSpLW=F IThBeg=    0 IThEnd=  127 NThAct=  128.
 PrsmSu:  NPrtUS= 128 ThrOK=T IAlg=1 NPAlg=1 LenDen=           0 ISkipM=0 DoSpLW=F IThBeg=    0 IThEnd=  127.
 Prism:   IPart=     0 DynPar=F LinDyn=F Incr=          46.
 PRISM was handed   536571219 working-precision words and 15798 shell-pairs
 PRISM was handed   536571219 working-precision words and 15798 shell-pairs
 PRISM was handed   536571219 working-precision words and 15798 shell-pairs
 PRISM was handed   536571219 working-precision words and 15798 shell-pairs
 PRISM was handed   536571219 working-precision words and 15798 shell-pairs
 PRISM was handed   536571219 working-precision words and 15798 shell-pairs
 PRISM was handed   536571219 working-precision words and 15798 shell-pairs
 PRISM was handed   536571219 working-precision words and 15798 shell-pairs
 PRISM was handed   536571219 working-precision words and 15798 shell-pairs
 PRISM was handed   536571219 working-precision words and 15798 shell-pairs
 PRISM was handed   536571219 working-precision words and 15798 shell-pairs
 PRISM was handed   536571219 working-precision words and 15798 shell-pairs
 PRISM was handed   536571219 working-precision words and 15798 shell-pairs
 PRISM was handed   536571219 working-precision words and 15798 shell-pairs
 PRISM was handed   536571219 working-precision words and 15798 shell-pairs
 PRISM was handed   536571219 working-precision words and 15798 shell-pairs
 PRISM was handed   536571219 working-precision words and 15798 shell-pairs
 PRISM was handed   536571219 working-precision words and 15798 shell-pairs
 PRISM was handed   536571219 working-precision words and 15798 shell-pairs
[...]
 **** Fit       0.010559
 **** Fit       0.011635
 **** Fit       0.012889
 **** Fit       0.014332
 **** Fit       0.015854
 **** Fit       0.017144
 **** Fit       0.017751
 **** Fit       0.017332
 **** Fit       0.015919
 **** Fit       0.013902
 **** Fit       0.011746
 **** Fit       0.009761
 **** Fit       0.008068
 **** Fit       0.006671
 **** Fit       0.007183
 **** Fit       0.007980
 **** Fit       0.008877
 **** Fit       0.009846
 **** Fit       0.010859
 **** Fit       0.011911
 **** Fit       0.013050
 **** Fit       0.014359
 **** Fit       0.015890
 **** Fit       0.017548
 **** Fit       0.018980
 **** Fit       0.019630
 **** Fit       0.019059
 **** Fit       0.017314
 **** Fit       0.014902
 **** Fit       0.012398
 **** Fit       0.010159
 **** Fit       0.008301
 **** Fit       0.006804
 **** Fit       0.006972
 **** Fit       0.007798
 **** Fit       0.008773
 **** Fit       0.009875
 **** Fit       0.011043
 **** Fit       0.012199
 **** Fit       0.013296
 **** Fit       0.014375
 **** Fit       0.015551
 **** Fit       0.016923
 **** Fit       0.018432
 **** Fit       0.019733
 **** Fit       0.020251
 **** Fit       0.019524
 **** Fit       0.017608
 **** Fit       0.015041
 **** Fit       0.012426
 **** Fit       0.010120
 **** Fit       0.008230
 **** Fit       0.006723
 **** Fit       0.007404
 **** Fit       0.008376
 **** Fit       0.009549
 **** Fit       0.010885
 **** Fit       0.012279
 **** Fit       0.013575
 **** Fit       0.014653
 **** Fit       0.015532
 **** Fit       0.016364
 **** Fit       0.017307
 **** Fit       0.018357
 **** Fit       0.019228
 **** Fit       0.019427
 **** Fit       0.018562
 **** Fit       0.016684
 **** Fit       0.014258
 **** Fit       0.011805
 **** Fit       0.009641
 **** Fit       0.007861
 **** Fit       0.006438
 **** Fit       0.006876
 **** Fit       0.007751
 **** Fit       0.008857
 **** Fit       0.010218
 **** Fit       0.011789
 **** Fit       0.013411
 **** Fit       0.014829
 **** Fit       0.015829
 **** Fit       0.016398
 **** Fit       0.016735
 **** Fit       0.017074
 **** Fit       0.017478
 **** Fit       0.017756
 **** Fit       0.017548
 **** Fit       0.016580
 **** Fit       0.014890
 **** Fit       0.012804
 **** Fit       0.010702
 **** Fit       0.008827
 **** Fit       0.007263
 **** Fit       0.005995
 **** Fit       0.007041
 **** Fit       0.007971
 **** Fit       0.009164
 **** Fit       0.010655
 **** Fit       0.012394
 **** Fit       0.014178
 **** Fit       0.015663
 **** Fit       0.016538
 **** Fit       0.016763
 **** Fit       0.016589
 **** Fit       0.016324
 **** Fit       0.016101
 **** Fit       0.015819
 **** Fit       0.015252
 **** Fit       0.014230
 **** Fit       0.012772
 **** Fit       0.011076
 **** Fit       0.009379
 **** Fit       0.007846
 **** Fit       0.006541
 **** Fit       0.005462
 **** Fit       0.007093
 **** Fit       0.008028
 **** Fit       0.009231
 **** Fit       0.010740
 **** Fit       0.012502
 **** Fit       0.014293
 **** Fit       0.015727
 **** Fit       0.016448
 **** Fit       0.016398
 **** Fit       0.015852
 **** Fit       0.015156
 **** Fit       0.014488
 **** Fit       0.013820
 **** Fit       0.013024
 **** Fit       0.012001
 **** Fit       0.010759
 **** Fit       0.009405
 **** Fit       0.008070
 **** Fit       0.006853
 **** Fit       0.005798
 **** Fit       0.007030
 **** Fit       0.007914
 **** Fit       0.009038
 **** Fit       0.010431
 **** Fit       0.012035
 **** Fit       0.013639
 **** Fit       0.014882
 **** Fit       0.015435
 **** Fit       0.015243
 **** Fit       0.014551
 **** Fit       0.013680
 **** Fit       0.012813
 **** Fit       0.011968
 **** Fit       0.011085
 **** Fit       0.010113
 **** Fit       0.009055
 **** Fit       0.007966
 **** Fit       0.006915
 **** Fit       0.005955
 **** Fit       0.006867
 **** Fit       0.007655
 **** Fit       0.008631
 **** Fit       0.009805
 **** Fit       0.011118
 **** Fit       0.012394
 **** Fit       0.013353
 **** Fit       0.013748
 **** Fit       0.013533
 **** Fit       0.012888
 **** Fit       0.012057
 **** Fit       0.011195
 **** Fit       0.010343
 **** Fit       0.009485
 **** Fit       0.008601
 **** Fit       0.007700
 **** Fit       0.006811
 **** Fit       0.005970
 **** Fit       0.006633
 **** Fit       0.007302
 **** Fit       0.008098
 **** Fit       0.009016
 **** Fit       0.010000
 **** Fit       0.010920
 **** Fit       0.011589
 **** Fit       0.011849
 **** Fit       0.011671
 **** Fit       0.011162
 **** Fit       0.010480
 **** Fit       0.009734
 **** Fit       0.008971
 **** Fit       0.008200
 **** Fit       0.007425
 **** Fit       0.006659
 **** Fit       0.006912
 **** Fit       0.007535
 **** Fit       0.008218
 **** Fit       0.008912
 **** Fit       0.009533
 **** Fit       0.009967
 **** Fit       0.010127
 **** Fit       0.009992
 **** Fit       0.009620
 **** Fit       0.009097
 **** Fit       0.008495
 **** Fit       0.007852
 **** Fit       0.007006
 **** Fit       0.007504
 **** Fit       0.007984
 **** Fit       0.008391
 **** Fit       0.008662
 **** Fit       0.008751
 **** Fit       0.008646
 **** Fit       0.008373
 **** Fit       0.007977
 **** Fit       0.007499
 **** Fit       0.006969
 **** Fit       0.006909
 **** Fit       0.007243
 **** Fit       0.007512
 **** Fit       0.007681
 **** Fit       0.007724
 **** Fit       0.007634
 **** Fit       0.007423
 **** Fit       0.007113
 **** Fit       0.006850
 **** Fit       0.006957
 **** Fit       0.006972
 **** Fit       0.006889
 **** Fit       0.006714
 **** Fit       0.007408
 **** Fit       0.007635
 **** Fit       0.007713
 **** Fit       0.007613
 **** Fit       0.007331
 **** Fit       0.006897
 **** Fit       0.008289
 **** Fit       0.008738
 **** Fit       0.009054
 **** Fit       0.009166
 **** Fit       0.009027
 **** Fit       0.008637
 **** Fit       0.008045
 **** Fit       0.007325
 **** Fit       0.008964
 **** Fit       0.009620
 **** Fit       0.010211
 **** Fit       0.010636
 **** Fit       0.010786
 **** Fit       0.010592
 **** Fit       0.010057
 **** Fit       0.009262
 **** Fit       0.008320
 **** Fit       0.007339
 **** Fit       0.009416
 **** Fit       0.010198
 **** Fit       0.010999
 **** Fit       0.011737
 **** Fit       0.012275
 **** Fit       0.012462
 **** Fit       0.012194
 **** Fit       0.011483
 **** Fit       0.010448
 **** Fit       0.009257
 **** Fit       0.008053
 **** Fit       0.006926
 **** Fit       0.008939
 **** Fit       0.009704
 **** Fit       0.010523
 **** Fit       0.011399
 **** Fit       0.012307
 **** Fit       0.013157
 **** Fit       0.013782
 **** Fit       0.013982
 **** Fit       0.013623
 **** Fit       0.012724
 **** Fit       0.011448
 **** Fit       0.010016
 **** Fit       0.008606
 **** Fit       0.007321
 **** Fit       0.007532
 **** Fit       0.008278
 **** Fit       0.009068
 **** Fit       0.009882
 **** Fit       0.010712
 **** Fit       0.011567
 **** Fit       0.012466
 **** Fit       0.013394
 **** Fit       0.014267
 **** Fit       0.014902
 **** Fit       0.015067
 **** Fit       0.014605
 **** Fit       0.013541
 **** Fit       0.012075
 **** Fit       0.010465
 **** Fit       0.008911
 **** Fit       0.007523
 **** Fit       0.007350
 **** Fit       0.008146
 **** Fit       0.009015
 **** Fit       0.009918
 **** Fit       0.010809
 **** Fit       0.011662
 **** Fit       0.012482
 **** Fit       0.013300
 **** Fit       0.014124
 **** Fit       0.014887
 **** Fit       0.015413
 **** Fit       0.015473
 **** Fit       0.014905
 **** Fit       0.013740
 **** Fit       0.012187
 **** Fit       0.010510
 **** Fit       0.008912
 **** Fit       0.007498
 **** Fit       0.006294
 **** Fit       0.007798
 **** Fit       0.008708
 **** Fit       0.009700
 **** Fit       0.010710
 **** Fit       0.011659
 **** Fit       0.012488
 **** Fit       0.013197
 **** Fit       0.013829
 **** Fit       0.014421
 **** Fit       0.014939
 **** Fit       0.015239
 **** Fit       0.015126
 **** Fit       0.014463
 **** Fit       0.013278
 **** Fit       0.011758
 **** Fit       0.010140
 **** Fit       0.008607
 **** Fit       0.007251
 **** Fit       0.007278
 **** Fit       0.008151
 **** Fit       0.009159
 **** Fit       0.010256
 **** Fit       0.011353
 **** Fit       0.012329
 **** Fit       0.013094
 **** Fit       0.013632
 **** Fit       0.014006
 **** Fit       0.014285
 **** Fit       0.014475
 **** Fit       0.014485
 **** Fit       0.014171
 **** Fit       0.013432
 **** Fit       0.012295
 **** Fit       0.010904
 **** Fit       0.009442
 **** Fit       0.008057
 **** Fit       0.006826
 **** Fit       0.007446
 **** Fit       0.008363
 **** Fit       0.009427
 **** Fit       0.010584
 **** Fit       0.011721
 **** Fit       0.012685
 **** Fit       0.013353
 **** Fit       0.013700
 **** Fit       0.013804
 **** Fit       0.013766
 **** Fit       0.013633
 **** Fit       0.013362
 **** Fit       0.012867
 **** Fit       0.012085
 **** Fit       0.011035
 **** Fit       0.009816
 **** Fit       0.008557
 **** Fit       0.007362
 **** Fit       0.006290
 **** Fit       0.007485
 **** Fit       0.008399
 **** Fit       0.009456
 **** Fit       0.010599
 **** Fit       0.011704
 **** Fit       0.012602
 **** Fit       0.013155
 **** Fit       0.013333
 **** Fit       0.013220
 **** Fit       0.012937
 **** Fit       0.012557
 **** Fit       0.012080
 **** Fit       0.011463
 **** Fit       0.010674
 **** Fit       0.009726
 **** Fit       0.008682
 **** Fit       0.007624
 **** Fit       0.006621
 **** Fit       0.007392
 **** Fit       0.008251
 **** Fit       0.009233
 **** Fit       0.010280
 **** Fit       0.011273
 **** Fit       0.012052
 **** Fit       0.012486
 **** Fit       0.012544
 **** Fit       0.012305
 **** Fit       0.011887
 **** Fit       0.011373
 **** Fit       0.010788
 **** Fit       0.010120
 **** Fit       0.009358
 **** Fit       0.008515
 **** Fit       0.007628
 **** Fit       0.006747
 **** Fit       0.007186
 **** Fit       0.007948
 **** Fit       0.008801
 **** Fit       0.009691
 **** Fit       0.010514
 **** Fit       0.011140
 **** Fit       0.011462
 **** Fit       0.011453
 **** Fit       0.011175
 **** Fit       0.010726
 **** Fit       0.010181
 **** Fit       0.009576
 **** Fit       0.008919
 **** Fit       0.008213
 **** Fit       0.007470
 **** Fit       0.006901
 **** Fit       0.007545
 **** Fit       0.008244
 **** Fit       0.008952
 **** Fit       0.009589
 **** Fit       0.010058
 **** Fit       0.010283
 **** Fit       0.010244
 **** Fit       0.009983
 **** Fit       0.009568
 **** Fit       0.009060
 **** Fit       0.008494
 **** Fit       0.007100
 **** Fit       0.007650
 **** Fit       0.008188
 **** Fit       0.008655
 **** Fit       0.008988
 **** Fit       0.009137
 **** Fit       0.009088
 **** Fit       0.008864
 **** Fit       0.008509
 **** Fit       0.008066
 **** Fit       0.007086
 **** Fit       0.007484
 **** Fit       0.007817
 **** Fit       0.008046
 **** Fit       0.008137
 **** Fit       0.008083
 **** Fit       0.007896
 **** Fit       0.007601
 **** Fit       0.007114
 **** Fit       0.007267
 **** Fit       0.007319
 **** Fit       0.007262
 **** Fit       0.007102
 **** Fit       0.008112
 **** Fit       0.008148
 **** Fit       0.008003
 **** Fit       0.007679
 **** Fit       0.008652
 **** Fit       0.009029
 **** Fit       0.009270
 **** Fit       0.009313
 **** Fit       0.009125
 **** Fit       0.008709
 **** Fit       0.008109
 **** Fit       0.007393
 **** Fit       0.009153
 **** Fit       0.009685
 **** Fit       0.010130
 **** Fit       0.010414
 **** Fit       0.010457
 **** Fit       0.010213
 **** Fit       0.009691
 **** Fit       0.008953
 **** Fit       0.008087
 **** Fit       0.007182
 **** Fit       0.010058
 **** Fit       0.010638
 **** Fit       0.011125
 **** Fit       0.011427
 **** Fit       0.011453
 **** Fit       0.011144
 **** Fit       0.010513
 **** Fit       0.009640
 **** Fit       0.008637
 **** Fit       0.007606
 **** Fit       0.010843
 **** Fit       0.011421
 **** Fit       0.011897
 **** Fit       0.012177
 **** Fit       0.012157
 **** Fit       0.011777
 **** Fit       0.011051
 **** Fit       0.010071
 **** Fit       0.008966
 **** Fit       0.007848
 **** Fit       0.008208
 **** Fit       0.008912
 **** Fit       0.009602
 **** Fit       0.010258
 **** Fit       0.010872
 **** Fit       0.011442
 **** Fit       0.011952
 **** Fit       0.012351
 **** Fit       0.012553
 **** Fit       0.012457
 **** Fit       0.012003
 **** Fit       0.011211
 **** Fit       0.010174
 **** Fit       0.009024
 **** Fit       0.007874
 **** Fit       0.007934
 **** Fit       0.008688
 **** Fit       0.009444
 **** Fit       0.010157
 **** Fit       0.010792
 **** Fit       0.011340
 **** Fit       0.011804
 **** Fit       0.012182
 **** Fit       0.012443
 **** Fit       0.012516
 **** Fit       0.012317
 **** Fit       0.011796
 **** Fit       0.010974
 **** Fit       0.009938
 **** Fit       0.008806
 **** Fit       0.007684
 **** Fit       0.008247
 **** Fit       0.009049
 **** Fit       0.009836
 **** Fit       0.010547
 **** Fit       0.011134
 **** Fit       0.011580
 **** Fit       0.011899
 **** Fit       0.012106
 **** Fit       0.012190
 **** Fit       0.012106
 **** Fit       0.011795
 **** Fit       0.011221
 **** Fit       0.010405
 **** Fit       0.009418
 **** Fit       0.008359
 **** Fit       0.007314
 **** Fit       0.007633
 **** Fit       0.008420
 **** Fit       0.009239
 **** Fit       0.010027
 **** Fit       0.010709
 **** Fit       0.011225
 **** Fit       0.011555
 **** Fit       0.011720
 **** Fit       0.011750
 **** Fit       0.011657
 **** Fit       0.011422
 **** Fit       0.011011
 **** Fit       0.010405
 **** Fit       0.009621
 **** Fit       0.008715
 **** Fit       0.007760
 **** Fit       0.007652
 **** Fit       0.008424
 **** Fit       0.009221
 **** Fit       0.009973
 **** Fit       0.010597
 **** Fit       0.011030
 **** Fit       0.011250
 **** Fit       0.011281
 **** Fit       0.011164
 **** Fit       0.010929
 **** Fit       0.010577
 **** Fit       0.010097
 **** Fit       0.009482
 **** Fit       0.008748
 **** Fit       0.007936
 **** Fit       0.007537
 **** Fit       0.008258
 **** Fit       0.008991
 **** Fit       0.009669
 **** Fit       0.010212
 **** Fit       0.010558
 **** Fit       0.010688
 **** Fit       0.010624
 **** Fit       0.010412
 **** Fit       0.010088
 **** Fit       0.009669
 **** Fit       0.009158
 **** Fit       0.008558
 **** Fit       0.007884
 **** Fit       0.007309
 **** Fit       0.007948
 **** Fit       0.008586
 **** Fit       0.009163
 **** Fit       0.009610
 **** Fit       0.009875
 **** Fit       0.009940
 **** Fit       0.009824
 **** Fit       0.009568
 **** Fit       0.009209
 **** Fit       0.007542
 **** Fit       0.008070
 **** Fit       0.008537
 **** Fit       0.008887
 **** Fit       0.009080
 **** Fit       0.009102
 **** Fit       0.008967
 **** Fit       0.008707
 **** Fit       0.007515
 **** Fit       0.007877
 **** Fit       0.008140
 **** Fit       0.008274
 **** Fit       0.008269
 **** Fit       0.008134
 **** Fit       0.007439
 **** Fit       0.007528
 **** Fit       0.008966
 **** Fit       0.008939
 **** Fit       0.008721
 **** Fit       0.008319
 **** Fit       0.009547
 **** Fit       0.009686
 **** Fit       0.009635
 **** Fit       0.009369
 **** Fit       0.008898
 **** Fit       0.008265
 **** Fit       0.009844
 **** Fit       0.010109
 **** Fit       0.010220
 **** Fit       0.010130
 **** Fit       0.009813
 **** Fit       0.009281
 **** Fit       0.008582
 **** Fit       0.010240
 **** Fit       0.010453
 **** Fit       0.010509
 **** Fit       0.010365
 **** Fit       0.009998
 **** Fit       0.009419
 **** Fit       0.008680
 **** Fit       0.007849
 **** Fit       0.010552
 **** Fit       0.010531
 **** Fit       0.010322
 **** Fit       0.009907
 **** Fit       0.009302
 **** Fit       0.008553
 **** Fit       0.008653
 **** Fit       0.009186
 **** Fit       0.009636
 **** Fit       0.009989
 **** Fit       0.010413
 **** Fit       0.010301
 **** Fit       0.010025
 **** Fit       0.009573
 **** Fit       0.008961
 **** Fit       0.008230
 **** Fit       0.008184
 **** Fit       0.008760
 **** Fit       0.009264
 **** Fit       0.009664
 **** Fit       0.009943
 **** Fit       0.010100
 **** Fit       0.009869
 **** Fit       0.009534
 **** Fit       0.009058
 **** Fit       0.008457
 **** Fit       0.008156
 **** Fit       0.008700
 **** Fit       0.009159
 **** Fit       0.009499
 **** Fit       0.009704
 **** Fit       0.009775
 **** Fit       0.007984
 **** Fit       0.008477
 **** Fit       0.008878
 **** Fit       0.009156
 **** Fit       0.009294
 **** Fit       0.009298
 **** Fit       0.008119
 **** Fit       0.008456
 **** Fit       0.008673
 **** Fit       0.008759
 **** Fit       0.008108
 -----------------------------------------------------------------
 Leave Link  602 at Tue Jan 11 16:06:54 2022, MaxMem=   104857600 cpu:              12.6 elap:              12.6
 (Enter /mnt/gpfs3_amd/share/apps/amd/gaussian/g16-A.03/g16/l9999.exe)

 Test job not archived.
 1\1\GINC-ROME032\SP\RB3LYP\6-311++G(d,p)\C12H21N1O4\MNG228\11-Jan-2022
 \0\\#P B3LYP/6-311++G(d,p) Geom=Allcheck SCF=Tight EmpiricalDispersion
 =GD3BJ Pop=CHELPG SP IOp(6/33=2)\\MAA1-DMA1 geo opt\\0,1\C,0,17.942920
 5533,6.0308025587,11.134496311\C,0,19.381336736,5.6191409738,11.284719
 2002\C,0,19.8603738854,4.4357444021,10.8947261851\C,0,20.34123526,6.59
 03917026,11.9072282437\O,0,21.5276474671,6.3679911125,12.0741729415\O,
 0,19.7559719595,7.7345896826,12.2634979632\H,0,17.3617974859,5.2343062
 082,10.6664971599\H,0,17.8557064907,6.9347255487,10.5262359912\H,0,17.
 4992330386,6.2659909202,12.1054347021\H,0,19.2185314628,3.6913206028,1
 0.4376250792\H,0,20.9081565503,4.1975472545,11.0289565805\H,0,20.45159
 63182,8.3587075102,12.6736197967\C,0,18.3891255014,13.9357624413,16.33
 55642936\C,0,18.2061403092,13.8526945566,14.8451282634\C,0,17.66232994
 29,14.8234157673,14.1069079395\C,0,18.6520870184,12.6179554986,14.1272
 964576\O,0,18.5570176081,12.4200041049,12.9382746213\O,0,19.1892530865
 ,11.7189729234,14.9870753678\C,0,19.645772042,10.4729330398,14.4217790
 611\C,0,21.0282794562,10.6461336485,13.7965794617\N,0,21.5898924418,9.
 3566634917,13.3706527375\C,0,22.6166018397,9.5306185413,12.3343085168\
 C,0,22.1308142107,8.5799972211,14.4947836474\H,0,18.0186165247,14.8904
 099988,16.7120003403\H,0,19.4425667658,13.8362765701,16.6092632715\H,0
 ,17.8555408141,13.1279451432,16.8427257357\H,0,17.3156237005,15.745032
 9561,14.5595051807\H,0,17.5551396489,14.7067797385,13.0357518571\H,0,1
 8.930504478,10.1233111234,13.6774132487\H,0,19.6633207763,9.783442959,
 15.2640276462\H,0,21.6951871301,11.1534571732,14.5105989752\H,0,20.928
 1184021,11.2851453029,12.919121018\H,0,23.4781579415,10.1046021634,12.
 7065849842\H,0,22.1858120638,10.0562059896,11.4804278212\H,0,22.952548
 9098,8.5465575739,12.0067032616\H,0,22.4514965582,7.6065453633,14.1239
 849445\H,0,21.3612149166,8.42033582,15.2507860499\H,0,22.9828007049,9.
 0939624133,14.964295143\\Version=AM64L-G16RevA.03\State=1-A\HF=-825.87
 29949\RMSD=6.966e-09\Dipole=0.0034062,0.7703037,0.9566765\Quadrupole=-
 1.3860764,1.5375537,-0.1514773,3.9390247,0.4003436,4.4148564\PG=C01 [X
 (C12H21N1O4)]\\@


 IT PROBABLY IS NOT POSSIBLE FOR A SCIENTIST TO INTERROGATE NATURE 
 FROM A WHOLLY DISINTERESTED VIEWPOINT.
 EVEN IF HE HAS NO PARTICULAR AXE TO GRIND, HE IS LIKELY TO HAVE 
 A DISTINCTIVE WAY OF VIEWING NATURE.

                                                   -- JOHN LOSEE
 Job cpu time:       0 days  0 hours 54 minutes 49.7 seconds.
 Elapsed time:       0 days  0 hours 54 minutes 56.2 seconds.
 File lengths (MBytes):  RWF=    256 Int=      0 D2E=      0 Chk=     32 Scr=     16
 Normal termination of Gaussian 16 at Tue Jan 11 16:06:54 2022.
