 Entering Gaussian System, Link 0=g16
 Initial command:
 /opt/ohpc/pub/libs/gaussian/g16-A.03/haswell/g16/l1.exe "g16_scratch/Gau-368024.inp" -scrdir="g16_scratch/"
 Entering Link 1 = /opt/ohpc/pub/libs/gaussian/g16-A.03/haswell/g16/l1.exe PID=    368025.
  
 Copyright (c) 1988,1990,1992,1993,1995,1998,2003,2009,2016,
            Gaussian, Inc.  All Rights Reserved.
  
 This is part of the Gaussian(R) 16 program.  It is based on
 the Gaussian(R) 09 system (copyright 2009, Gaussian, Inc.),
 the Gaussian(R) 03 system (copyright 2003, Gaussian, Inc.),
 the Gaussian(R) 98 system (copyright 1998, Gaussian, Inc.),
 the Gaussian(R) 94 system (copyright 1995, Gaussian, Inc.),
 the Gaussian 92(TM) system (copyright 1992, Gaussian, Inc.),
 the Gaussian 90(TM) system (copyright 1990, Gaussian, Inc.),
 the Gaussian 88(TM) system (copyright 1988, Gaussian, Inc.),
 the Gaussian 86(TM) system (copyright 1986, Carnegie Mellon
 University), and the Gaussian 82(TM) system (copyright 1983,
 Carnegie Mellon University). Gaussian is a federally registered
 trademark of Gaussian, Inc.
  
 This software contains proprietary and confidential information,
 including trade secrets, belonging to Gaussian, Inc.
  
 This software is provided under written license and may be
 used, copied, transmitted, or stored only in accord with that
 written license.
  
 The following legend is applicable only to US Government
 contracts under FAR:
  
                    RESTRICTED RIGHTS LEGEND
  
 Use, reproduction and disclosure by the US Government is
 subject to restrictions as set forth in subparagraphs (a)
 and (c) of the Commercial Computer Software - Restricted
 Rights clause in FAR 52.227-19.
  
 Gaussian, Inc.
 340 Quinnipiac St., Bldg. 40, Wallingford CT 06492
  
  
 ---------------------------------------------------------------
 Warning -- This program may not be used in any manner that
 competes with the business of Gaussian, Inc. or will provide
 assistance to any competitor of Gaussian, Inc.  The licensee
 of this program is prohibited from giving any competitor of
 Gaussian, Inc. access to this program.  By using this program,
 the user acknowledges that Gaussian, Inc. is engaged in the
 business of creating and licensing software in the field of
 computational chemistry and represents and warrants to the
 licensee that it is not a competitor of Gaussian, Inc. and that
 it will not use this program in any manner prohibited above.
 ---------------------------------------------------------------
  

 Cite this work as:
 Gaussian 16, Revision A.03,
 M. J. Frisch, G. W. Trucks, H. B. Schlegel, G. E. Scuseria, 
 M. A. Robb, J. R. Cheeseman, G. Scalmani, V. Barone, 
 G. A. Petersson, H. Nakatsuji, X. Li, M. Caricato, A. V. Marenich, 
 J. Bloino, B. G. Janesko, R. Gomperts, B. Mennucci, H. P. Hratchian, 
 J. V. Ortiz, A. F. Izmaylov, J. L. Sonnenberg, D. Williams-Young, 
 F. Ding, F. Lipparini, F. Egidi, J. Goings, B. Peng, A. Petrone, 
 T. Henderson, D. Ranasinghe, V. G. Zakrzewski, J. Gao, N. Rega, 
 G. Zheng, W. Liang, M. Hada, M. Ehara, K. Toyota, R. Fukuda, 
 J. Hasegawa, M. Ishida, T. Nakajima, Y. Honda, O. Kitao, H. Nakai, 
 T. Vreven, K. Throssell, J. A. Montgomery, Jr., J. E. Peralta, 
 F. Ogliaro, M. J. Bearpark, J. J. Heyd, E. N. Brothers, K. N. Kudin, 
 V. N. Staroverov, T. A. Keith, R. Kobayashi, J. Normand, 
 K. Raghavachari, A. P. Rendell, J. C. Burant, S. S. Iyengar, 
 J. Tomasi, M. Cossi, J. M. Millam, M. Klene, C. Adamo, R. Cammi, 
 J. W. Ochterski, R. L. Martin, K. Morokuma, O. Farkas, 
 J. B. Foresman, and D. J. Fox, Gaussian, Inc., Wallingford CT, 2016.
 
 ******************************************
 Gaussian 16:  ES64L-G16RevA.03 25-Dec-2016
                21-Apr-2022 
 ******************************************
 %Mem=192GB
 %NProcShared=48
 Will use up to   48 processors via shared memory.
 %Chk=4VP-1.chk
 ---------------------------------------------------------------------
 #n B3LYP/6-311++G(d,p) Opt freq EmpiricalDispersion=GD3BJ IOp(6/33=2)
 ---------------------------------------------------------------------
 1/18=20,19=15,26=3,38=1/1,3;
 2/9=110,12=2,17=6,18=5,40=1/2;
 3/5=4,6=6,7=1111,11=2,25=1,30=1,71=1,74=-5,124=41/1,2,3;
 4//1;
 5/5=2,38=5/2;
 6/7=2,8=2,9=2,10=2,28=1,33=2/1;
 7//1,2,3,16;
 1/18=20,19=15,26=3/3(2);
 2/9=110/2;
 99//99;
 2/9=110/2;
 3/5=4,6=6,7=1111,11=2,25=1,30=1,71=1,74=-5,124=41/1,2,3;
 4/5=5,16=3,69=1/1;
 5/5=2,38=5/2;
 7//1,2,3,16;
 1/18=20,19=15,26=3/3(-5);
 2/9=110/2;
 6/7=2,8=2,9=2,10=2,19=2,28=1,33=2/1;
 99/9=1/99;
 -----------
 4VP geo opt
 -----------
 Symbolic Z-matrix:
 Charge =  0 Multiplicity = 1
 H                     1.0205   -0.6927    0.4243 
 C                     2.1024   -0.675     0.5145 
 H                     2.5102   -0.3253    1.4571 
 C                     2.8728   -1.0522   -0.514 
 H                     2.3982   -1.3651   -1.4416 
 C                     4.3425   -1.0539   -0.501 
 C                     5.0849   -0.6528    0.6116 
 H                     4.6089   -0.3112    1.5236 
 C                     6.4682   -0.7079    0.5444 
 H                     7.0797   -0.4004    1.3877 
 N                     7.1524   -1.1389   -0.5351 
 C                     6.4172   -1.5386   -1.5935 
 H                     6.9891   -1.8868   -2.4487 
 C                     5.0311   -1.5213   -1.6217 
 H                     4.5081   -1.8588   -2.5105 
 

 GradGradGradGradGradGradGradGradGradGradGradGradGradGradGradGradGradGrad
 Berny optimization.
 Initialization pass.
                           ----------------------------
                           !    Initial Parameters    !
                           ! (Angstroms and Degrees)  !
 --------------------------                            --------------------------
 ! Name  Definition              Value          Derivative Info.                !
 --------------------------------------------------------------------------------
 ! R1    R(1,2)                  1.0858         estimate D2E/DX2                !
 ! R2    R(2,3)                  1.0849         estimate D2E/DX2                !
 ! R3    R(2,4)                  1.3393         estimate D2E/DX2                !
 ! R4    R(4,5)                  1.0879         estimate D2E/DX2                !
 ! R5    R(4,6)                  1.4698         estimate D2E/DX2                !
 ! R6    R(6,7)                  1.3964         estimate D2E/DX2                !
 ! R7    R(6,14)                 1.3959         estimate D2E/DX2                !
 ! R8    R(7,8)                  1.084          estimate D2E/DX2                !
 ! R9    R(7,9)                  1.386          estimate D2E/DX2                !
 ! R10   R(9,10)                 1.0861         estimate D2E/DX2                !
 ! R11   R(9,11)                 1.3488         estimate D2E/DX2                !
 ! R12   R(11,12)                1.3493         estimate D2E/DX2                !
 ! R13   R(12,13)                1.0861         estimate D2E/DX2                !
 ! R14   R(12,14)                1.3865         estimate D2E/DX2                !
 ! R15   R(14,15)                1.0851         estimate D2E/DX2                !
 ! A1    A(1,2,3)              116.8691         estimate D2E/DX2                !
 ! A2    A(1,2,4)              120.3175         estimate D2E/DX2                !
 ! A3    A(3,2,4)              122.8045         estimate D2E/DX2                !
 ! A4    A(2,4,5)              119.0024         estimate D2E/DX2                !
 ! A5    A(2,4,6)              124.6634         estimate D2E/DX2                !
 ! A6    A(5,4,6)              116.3231         estimate D2E/DX2                !
 ! A7    A(4,6,7)              122.5713         estimate D2E/DX2                !
 ! A8    A(4,6,14)             119.1147         estimate D2E/DX2                !
 ! A9    A(7,6,14)             118.2675         estimate D2E/DX2                !
 ! A10   A(6,7,8)              121.8308         estimate D2E/DX2                !
 ! A11   A(6,7,9)              118.722          estimate D2E/DX2                !
 ! A12   A(8,7,9)              119.4444         estimate D2E/DX2                !
 ! A13   A(7,9,10)             120.8645         estimate D2E/DX2                !
 ! A14   A(7,9,11)             123.9026         estimate D2E/DX2                !
 ! A15   A(10,9,11)            115.2324         estimate D2E/DX2                !
 ! A16   A(9,11,12)            116.4921         estimate D2E/DX2                !
 ! A17   A(11,12,13)           115.1954         estimate D2E/DX2                !
 ! A18   A(11,12,14)           123.8483         estimate D2E/DX2                !
 ! A19   A(13,12,14)           120.9563         estimate D2E/DX2                !
 ! A20   A(6,14,12)            118.7509         estimate D2E/DX2                !
 ! A21   A(6,14,15)            121.6005         estimate D2E/DX2                !
 ! A22   A(12,14,15)           119.6456         estimate D2E/DX2                !
 ! D1    D(1,2,4,5)              0.6606         estimate D2E/DX2                !
 ! D2    D(1,2,4,6)            179.4051         estimate D2E/DX2                !
 ! D3    D(3,2,4,5)           -178.2205         estimate D2E/DX2                !
 ! D4    D(3,2,4,6)              0.524          estimate D2E/DX2                !
 ! D5    D(2,4,6,7)              0.0025         estimate D2E/DX2                !
 ! D6    D(2,4,6,14)           177.4804         estimate D2E/DX2                !
 ! D7    D(5,4,6,7)            178.7774         estimate D2E/DX2                !
 ! D8    D(5,4,6,14)            -3.7447         estimate D2E/DX2                !
 ! D9    D(4,6,7,8)             -0.4723         estimate D2E/DX2                !
 ! D10   D(4,6,7,9)            178.9087         estimate D2E/DX2                !
 ! D11   D(14,6,7,8)          -177.9705         estimate D2E/DX2                !
 ! D12   D(14,6,7,9)             1.4105         estimate D2E/DX2                !
 ! D13   D(4,6,14,12)         -179.0289         estimate D2E/DX2                !
 ! D14   D(4,6,14,15)            1.6058         estimate D2E/DX2                !
 ! D15   D(7,6,14,12)           -1.4421         estimate D2E/DX2                !
 ! D16   D(7,6,14,15)          179.1926         estimate D2E/DX2                !
 ! D17   D(6,7,9,10)           179.7388         estimate D2E/DX2                !
 ! D18   D(6,7,9,11)            -0.5496         estimate D2E/DX2                !
 ! D19   D(8,7,9,10)            -0.8651         estimate D2E/DX2                !
 ! D20   D(8,7,9,11)           178.8465         estimate D2E/DX2                !
 ! D21   D(7,9,11,12)           -0.2997         estimate D2E/DX2                !
 ! D22   D(10,9,11,12)         179.4267         estimate D2E/DX2                !
 ! D23   D(9,11,12,13)        -179.6595         estimate D2E/DX2                !
 ! D24   D(9,11,12,14)           0.2651         estimate D2E/DX2                !
 ! D25   D(11,12,14,6)           0.6174         estimate D2E/DX2                !
 ! D26   D(11,12,14,15)        179.9954         estimate D2E/DX2                !
 ! D27   D(13,12,14,6)        -179.4622         estimate D2E/DX2                !
 ! D28   D(13,12,14,15)         -0.0842         estimate D2E/DX2                !
 --------------------------------------------------------------------------------
 Trust Radius=3.00D-01 FncErr=1.00D-07 GrdErr=1.00D-06 EigMax=2.50D+02 EigMin=1.00D-04
 Number of steps in this run=     75 maximum allowed number of steps=    100.
 GradGradGradGradGradGradGradGradGradGradGradGradGradGradGradGradGradGrad

                          Input orientation:                          
 ---------------------------------------------------------------------
 Center     Atomic      Atomic             Coordinates (Angstroms)
 Number     Number       Type             X           Y           Z
 ---------------------------------------------------------------------
      1          1           0        1.020500   -0.692700    0.424300
      2          6           0        2.102400   -0.675000    0.514500
      3          1           0        2.510200   -0.325300    1.457100
      4          6           0        2.872800   -1.052200   -0.514000
      5          1           0        2.398200   -1.365100   -1.441600
      6          6           0        4.342500   -1.053900   -0.501000
      7          6           0        5.084900   -0.652800    0.611600
      8          1           0        4.608900   -0.311200    1.523600
      9          6           0        6.468200   -0.707900    0.544400
     10          1           0        7.079700   -0.400400    1.387700
     11          7           0        7.152400   -1.138900   -0.535100
     12          6           0        6.417200   -1.538600   -1.593500
     13          1           0        6.989100   -1.886800   -2.448700
     14          6           0        5.031100   -1.521300   -1.621700
     15          1           0        4.508100   -1.858800   -2.510500
 ---------------------------------------------------------------------
                    Distance matrix (angstroms):
                    1          2          3          4          5
     1  H    0.000000
     2  C    1.085798   0.000000
     3  H    1.849558   1.084936   0.000000
     4  C    2.107288   1.339257   2.131923   0.000000
     5  H    2.414904   2.095248   3.081589   1.087931   0.000000
     6  C    3.467323   2.488544   2.778909   1.469758   2.182172
     7  C    4.068909   2.984163   2.729690   2.513938   3.455627
     8  H    3.772349   2.726385   2.099801   2.777578   3.845817
     9  C    5.449045   4.366026   4.079849   3.763729   4.576135
    10  H    6.142270   5.060771   4.570644   4.662544   5.554460
    11  N    6.222519   5.178741   5.116720   4.280530   4.845134
    12  C    5.823353   4.879238   5.103225   3.736934   4.025610
    13  H    6.730839   5.841990   6.144437   4.624235   4.728931
    14  C    4.577948   3.722480   4.155041   2.470893   2.643671
    15  H    4.704912   4.042202   4.699476   2.703853   2.416188
                    6          7          8          9         10
     6  C    0.000000
     7  C    1.396395   0.000000
     8  H    2.172919   1.083979   0.000000
     9  C    2.393988   1.386027   2.138504   0.000000
    10  H    3.389176   2.155287   2.476142   1.086114   0.000000
    11  N    2.811392   2.413663   3.375311   1.348781   2.061026
    12  C    2.394341   2.724359   3.806937   2.294184   3.259135
    13  H    3.389948   3.809747   4.891527   3.258802   4.115283
    14  C    1.395923   2.396834   3.396396   2.723759   3.809156
    15  H    2.171031   3.396269   4.321943   3.807752   4.892445
                   11         12         13         14         15
    11  N    0.000000
    12  C    1.349255   0.000000
    13  H    2.061040   1.086131   0.000000
    14  C    2.413885   1.386495   2.156683   0.000000
    15  H    3.378281   2.141980   2.481928   1.085081   0.000000
 Stoichiometry    C7H7N
 Framework group  C1[X(C7H7N)]
 Deg. of freedom    39
 Full point group                 C1      NOp   1
 Largest Abelian subgroup         C1      NOp   1
 Largest concise Abelian subgroup C1      NOp   1
                         Standard orientation:                         
 ---------------------------------------------------------------------
 Center     Atomic      Atomic             Coordinates (Angstroms)
 Number     Number       Type             X           Y           Z
 ---------------------------------------------------------------------
      1          1           0        3.951952    0.027496   -0.018512
      2          6           0        2.913713    0.345327   -0.018725
      3          1           0        2.728141    1.414264   -0.023330
      4          6           0        1.928954   -0.561952    0.007798
      5          1           0        2.185967   -1.618584    0.040447
      6          6           0        0.495146   -0.239206    0.022628
      7          6           0        0.019973    1.073794    0.010037
      8          1           0        0.691410    1.924670   -0.003859
      9          6           0       -1.349624    1.286439    0.002437
     10          1           0       -1.757156    2.293181   -0.003153
     11          7           0       -2.264770    0.295644   -0.004280
     12          6           0       -1.786051   -0.965819   -0.009656
     13          1           0       -2.540829   -1.746757   -0.020856
     14          6           0       -0.435482   -1.279331   -0.003286
     15          1           0       -0.125874   -2.319293   -0.008175
 ---------------------------------------------------------------------
 Rotational constants (GHZ):           5.3856802           1.5710625           1.2163635
 Standard basis: 6-311++G(d,p) (5D, 7F)
 There are   233 symmetry adapted cartesian basis functions of A   symmetry.
 There are   225 symmetry adapted basis functions of A   symmetry.
   225 basis functions,   351 primitive gaussians,   233 cartesian basis functions
    28 alpha electrons       28 beta electrons
       nuclear repulsion energy       323.4273128634 Hartrees.
 NAtoms=   15 NActive=   15 NUniq=   15 SFac= 1.00D+00 NAtFMM=   60 NAOKFM=F Big=F
 Integral buffers will be    131072 words long.
 Raffenetti 2 integral format.
 Two-electron integral symmetry is turned on.
 Nuclear repulsion after empirical dispersion term =      323.4013948324 Hartrees.
 One-electron integrals computed using PRISM.
 NBasis=   225 RedAO= T EigKep=  2.59D-06  NBF=   225
 NBsUse=   225 1.00D-06 EigRej= -1.00D+00 NBFU=   225
 ExpMin= 3.60D-02 ExpMax= 6.29D+03 ExpMxC= 9.49D+02 IAcc=3 IRadAn=         5 AccDes= 0.00D+00
 Harris functional with IExCor=  402 and IRadAn=       5 diagonalized for initial guess.
 HarFok:  IExCor=  402 AccDes= 0.00D+00 IRadAn=         5 IDoV= 1 UseB2=F ITyADJ=14
 ICtDFT=  3500011 ScaDFX=  1.000000  1.000000  1.000000  1.000000
 FoFCou: FMM=F IPFlag=           0 FMFlag=      100000 FMFlg1=           0
         NFxFlg=           0 DoJE=T BraDBF=F KetDBF=T FulRan=T
         wScrn=  0.000000 ICntrl=       500 IOpCl=  0 I1Cent=   200000004 NGrid=           0
         NMat0=    1 NMatS0=      1 NMatT0=    0 NMatD0=    1 NMtDS0=    0 NMtDT0=    0
 Petite list used in FoFCou.
 Requested convergence on RMS density matrix=1.00D-08 within 128 cycles.
 Requested convergence on MAX density matrix=1.00D-06.
 Requested convergence on             energy=1.00D-06.
 No special actions if energy rises.
 SCF Done:  E(RB3LYP) =  -325.796196315     A.U. after   14 cycles
            NFock= 14  Conv=0.39D-08     -V/T= 2.0046
 SCF density gives NOpUse=  1 NOpAll=  1.

 **********************************************************************

            Population analysis using the SCF density.

 **********************************************************************

 Orbital symmetries:
 BldTbl:  Degeneracy threshold= 1.00D-02
       Occupied  (A) (A) (A) (A) (A) (A) (A) (A) (A) (A) (A) (A)
                 (A) (A) (A) (A) (A) (A) (A) (A) (A) (A) (A) (A)
                 (A) (A) (A) (A)
       Virtual   (A) (A) (A) (A) (A) (A) (A) (A) (A) (A) (A) (A)
                 (A) (A) (A) (A) (A) (A) (A) (A) (A) (A) (A) (A)
                 (A) (A) (A) (A) (A) (A) (A) (A) (A) (A) (A) (A)
                 (A) (A) (A) (A) (A) (A) (A) (A) (A) (A) (A) (A)
                 (A) (A) (A) (A) (A) (A) (A) (A) (A) (A) (A) (A)
                 (A) (A) (A) (A) (A) (A) (A) (A) (A) (A) (A) (A)
                 (A) (A) (A) (A) (A) (A) (A) (A) (A) (A) (A) (A)
                 (A) (A) (A) (A) (A) (A) (A) (A) (A) (A) (A) (A)
                 (A) (A) (A) (A) (A) (A) (A) (A) (A) (A) (A) (A)
                 (A) (A) (A) (A) (A) (A) (A) (A) (A) (A) (A) (A)
                 (A) (A) (A) (A) (A) (A) (A) (A) (A) (A) (A) (A)
                 (A) (A) (A) (A) (A) (A) (A) (A) (A) (A) (A) (A)
                 (A) (A) (A) (A) (A) (A) (A) (A) (A) (A) (A) (A)
                 (A) (A) (A) (A) (A) (A) (A) (A) (A) (A) (A) (A)
                 (A) (A) (A) (A) (A) (A) (A) (A) (A) (A) (A) (A)
                 (A) (A) (A) (A) (A) (A) (A) (A) (A) (A) (A) (A)
                 (A) (A) (A) (A) (A)
 The electronic state is 1-A.
 Alpha  occ. eigenvalues --  -14.31558 -10.21347 -10.21343 -10.20938 -10.19691
 Alpha  occ. eigenvalues --  -10.18985 -10.18954 -10.18738  -0.94651  -0.84255
 Alpha  occ. eigenvalues --   -0.77366  -0.76691  -0.65655  -0.63841  -0.58317
 Alpha  occ. eigenvalues --   -0.52795  -0.50190  -0.47876  -0.45615  -0.43870
 Alpha  occ. eigenvalues --   -0.42616  -0.41088  -0.38081  -0.36694  -0.33730
 Alpha  occ. eigenvalues --   -0.27604  -0.26659  -0.25903
 Alpha virt. eigenvalues --   -0.06924  -0.02773  -0.00917   0.00110   0.00696
 Alpha virt. eigenvalues --    0.01741   0.02582   0.03256   0.04690   0.04969
 Alpha virt. eigenvalues --    0.05739   0.06590   0.07438   0.08555   0.08741
 Alpha virt. eigenvalues --    0.09513   0.10228   0.10707   0.10804   0.11096
 Alpha virt. eigenvalues --    0.11874   0.12644   0.12785   0.13336   0.14039
 Alpha virt. eigenvalues --    0.15126   0.15207   0.15595   0.15909   0.16292
 Alpha virt. eigenvalues --    0.17136   0.17376   0.17700   0.18940   0.21311
 Alpha virt. eigenvalues --    0.21883   0.22112   0.23481   0.24221   0.24578
 Alpha virt. eigenvalues --    0.24676   0.25726   0.25768   0.27200   0.28877
 Alpha virt. eigenvalues --    0.29425   0.30024   0.30516   0.31817   0.31991
 Alpha virt. eigenvalues --    0.32639   0.34943   0.36334   0.38534   0.39390
 Alpha virt. eigenvalues --    0.42443   0.49011   0.50064   0.51402   0.52486
 Alpha virt. eigenvalues --    0.53499   0.54817   0.55200   0.55543   0.56460
 Alpha virt. eigenvalues --    0.57195   0.58180   0.61004   0.61574   0.64176
 Alpha virt. eigenvalues --    0.64964   0.65399   0.66197   0.68909   0.69906
 Alpha virt. eigenvalues --    0.74149   0.74958   0.76264   0.76995   0.79758
 Alpha virt. eigenvalues --    0.80191   0.81423   0.84226   0.85858   0.87183
 Alpha virt. eigenvalues --    0.87664   0.90085   0.90299   0.91730   0.94326
 Alpha virt. eigenvalues --    0.94710   0.96919   0.98708   1.00141   1.03758
 Alpha virt. eigenvalues --    1.04612   1.05893   1.06591   1.07979   1.09536
 Alpha virt. eigenvalues --    1.10681   1.11706   1.19583   1.29289   1.35510
 Alpha virt. eigenvalues --    1.42538   1.43336   1.46977   1.48817   1.50491
 Alpha virt. eigenvalues --    1.54381   1.54633   1.58302   1.58565   1.59494
 Alpha virt. eigenvalues --    1.59994   1.63616   1.67446   1.70455   1.70830
 Alpha virt. eigenvalues --    1.74806   1.76336   1.77400   1.78110   1.80641
 Alpha virt. eigenvalues --    1.82832   1.89208   1.89682   1.92569   1.92894
 Alpha virt. eigenvalues --    1.97703   2.00893   2.01513   2.02162   2.06844
 Alpha virt. eigenvalues --    2.08466   2.14091   2.17873   2.22492   2.23816
 Alpha virt. eigenvalues --    2.25361   2.27127   2.33131   2.39861   2.40295
 Alpha virt. eigenvalues --    2.45716   2.47220   2.50156   2.56125   2.57335
 Alpha virt. eigenvalues --    2.59534   2.61674   2.67500   2.68188   2.71146
 Alpha virt. eigenvalues --    2.73068   2.73481   2.73941   2.74387   2.76109
 Alpha virt. eigenvalues --    2.80089   2.81053   2.84168   2.86704   2.88984
 Alpha virt. eigenvalues --    2.93372   2.93530   2.97471   2.99467   3.01046
 Alpha virt. eigenvalues --    3.19504   3.24298   3.24867   3.37907   3.43602
 Alpha virt. eigenvalues --    3.48074   3.56705   3.63540   3.65536   3.72222
 Alpha virt. eigenvalues --    3.76086   3.92105   4.00119   4.04943   4.07868
 Alpha virt. eigenvalues --    4.38577   4.42159   4.52808   5.20985  23.65197
 Alpha virt. eigenvalues --   23.80753  23.90952  23.99490  24.09802  24.12981
 Alpha virt. eigenvalues --   24.22291  35.63499
          Condensed to atoms (all electrons):
               1          2          3          4          5          6
     1  H    0.522783   0.454486  -0.037013  -0.073827  -0.023117   0.010904
     2  C    0.454486   6.393933   0.281910  -0.963889  -0.085811   0.706756
     3  H   -0.037013   0.281910   0.564087   0.113605   0.016441  -0.105983
     4  C   -0.073827  -0.963889   0.113605   8.980537   0.403148  -2.446895
     5  H   -0.023117  -0.085811   0.016441   0.403148   0.544541  -0.073706
     6  C    0.010904   0.706756  -0.105983  -2.446895  -0.073706   8.529830
     7  C   -0.009453  -0.062434  -0.014081   0.104928   0.004671  -0.209217
     8  H   -0.001856   0.020709   0.007136   0.074693   0.000610  -0.118858
     9  C   -0.008130  -0.329963   0.010884   0.235114   0.011194  -0.237983
    10  H   -0.000126  -0.004874   0.000988  -0.003309   0.000475   0.010292
    11  N    0.000790   0.032723  -0.001253   0.023475  -0.003011   0.031486
    12  C   -0.005986  -0.309516   0.001468   0.034833   0.049228   0.208085
    13  H   -0.000161  -0.003653   0.000308   0.019782   0.000580  -0.013060
    14  C    0.005558   0.223325   0.035815  -0.098304   0.004117  -1.100643
    15  H    0.000428   0.025602   0.000390  -0.025045   0.005295  -0.001648
               7          8          9         10         11         12
     1  H   -0.009453  -0.001856  -0.008130  -0.000126   0.000790  -0.005986
     2  C   -0.062434   0.020709  -0.329963  -0.004874   0.032723  -0.309516
     3  H   -0.014081   0.007136   0.010884   0.000988  -0.001253   0.001468
     4  C    0.104928   0.074693   0.235114  -0.003309   0.023475   0.034833
     5  H    0.004671   0.000610   0.011194   0.000475  -0.003011   0.049228
     6  C   -0.209217  -0.118858  -0.237983   0.010292   0.031486   0.208085
     7  C    9.231310   0.404349  -1.039043  -0.154876   0.261462  -0.297172
     8  H    0.404349   0.573892  -0.048331  -0.012340   0.013538  -0.016463
     9  C   -1.039043  -0.048331   7.240558   0.527876  -0.057372   0.995309
    10  H   -0.154876  -0.012340   0.527876   0.564329  -0.126003   0.066970
    11  N    0.261462   0.013538  -0.057372  -0.126003   6.750574  -0.017449
    12  C   -0.297172  -0.016463   0.995309   0.066970  -0.017449   7.172941
    13  H   -0.071206  -0.000095   0.071597   0.002767  -0.120310   0.507801
    14  C   -1.798712   0.000969  -0.748891  -0.055022   0.258970  -1.686749
    15  H    0.036647  -0.001384  -0.024772   0.000509   0.009410  -0.037213
              13         14         15
     1  H   -0.000161   0.005558   0.000428
     2  C   -0.003653   0.223325   0.025602
     3  H    0.000308   0.035815   0.000390
     4  C    0.019782  -0.098304  -0.025045
     5  H    0.000580   0.004117   0.005295
     6  C   -0.013060  -1.100643  -0.001648
     7  C   -0.071206  -1.798712   0.036647
     8  H   -0.000095   0.000969  -0.001384
     9  C    0.071597  -0.748891  -0.024772
    10  H    0.002767  -0.055022   0.000509
    11  N   -0.120310   0.258970   0.009410
    12  C    0.507801  -1.686749  -0.037213
    13  H    0.561421  -0.115505  -0.006726
    14  C   -0.115505  10.174736   0.310816
    15  H   -0.006726   0.310816   0.528964
 Mulliken charges:
               1
     1  H    0.164720
     2  C   -0.379304
     3  H    0.125300
     4  C   -0.378846
     5  H    0.145345
     6  C    0.810641
     7  C   -0.387173
     8  H    0.103431
     9  C   -0.598048
    10  H    0.182346
    11  N   -0.057030
    12  C   -0.666089
    13  H    0.166461
    14  C    0.589519
    15  H    0.178728
 Sum of Mulliken charges =  -0.00000
 Mulliken charges with hydrogens summed into heavy atoms:
               1
     2  C   -0.089285
     4  C   -0.233501
     6  C    0.810641
     7  C   -0.283742
     9  C   -0.415702
    11  N   -0.057030
    12  C   -0.499628
    14  C    0.768247
 DipInt: DoE/N= T F RetVal/Mat= T F Init=T NMatP=  1 IDeriv=0 Min/MaxMlt=  0  4
 Entering OneElI...
 OneElI was handed 25769662335 working-precision words.
 Multipole integrals L=0 to 4 MinM= 0 MaxM= 0.
 Requested accuracy = 0.1000D-12
 ShPair: Thresh= 1.00D-13 NBox=     0 BxSize= 0.00D+00 RnKept= 1.27D+01
         NSMCal=                 3486 NSMKep=                3361
 PrmmSu-InSpLW:  IPartL=    0 NPrtUS=    1 NPrtUL=    1 DoSpLW=F IThBeg=    0 IThEnd=    0 NThAct=    1.
 PrsmSu:  NPrtUS=   1 ThrOK=F IAlg=1 NPAlg=1 LenDen=           0 ISkipM=0 DoSpLW=F IThBeg=    0 IThEnd=    0.
 Prism:   IPart=     0 DynPar=F LinDyn=F Incr=          33.
 PRISM was handed 25769430570 working-precision words and  3361 shell-pairs
 IPart=  0 NShTot=        3361 NBatch=          62 AvBLen=        54.2
 PrsmSu-ThDecC:  IPartSL=    0    0 NPrtUSL=    1    1 IThBeg=    0 IThEnd=    0 CPU=   -1 GPU=   -1 NThAct=    1.
 PrSmSu:  NxtVal=             34.
 Electronic moments (au):
        -56.00000000          1.01619736         -0.17634828          0.00212074
       -679.94428814       -236.58142470        -38.42692167          1.46592713
          0.03349899         -0.04442549       -845.39206606         -8.54918163
          0.00586670        177.99499388        -72.33110595         10.02593030
         -4.76407627          0.35929491          0.33513884          3.84081206
     -17316.71801587      -2534.37684727       -161.42679782       -554.41794692
         33.33971091         74.98176438         -1.79747753          0.39972471
         -0.22392751      -2028.20597357       -495.93704340       -189.57251197
          7.40968466         -3.85276317         -0.43145718
 Electronic spatial extent (au):  <R**2>=            954.9526
 DipInt: DoE/N= F T RetVal/Mat= T F Init=T NMatP=  1 IDeriv=0 Min/MaxMlt=  0  4
 Nuclear    moments (au):
         56.00000000          0.00000000          0.00000000          0.00000000
        641.80712750        206.56519548          0.03564965          0.00000000
         -0.00000000         -0.00000000        893.74279947         10.03205213
          0.00047491       -181.75915709         63.00534439         -9.97303550
          0.08297457         -0.01913684         -0.44096741         -4.16590815
      14726.68744548       1746.37993232          0.00007311        610.49179434
        -33.39850377        -82.25778220          1.19517203          0.00056330
         -0.00163458       1522.13659838          0.54272986          0.11612161
         -7.90360348          4.70933799          0.00641179
 Total      moments (au):
         -0.00000000          1.01619736         -0.17634828          0.00212074
        -38.13716063        -30.01622922        -38.39127201          1.46592713
          0.03349899         -0.04442549         48.35073340          1.48287050
          0.00634161         -3.76416321         -9.32576156          0.05289480
         -4.68110171          0.34015807         -0.10582857         -0.32509609
      -2590.03057039       -787.99691495       -161.42672471         56.07384742
         -0.05879285         -7.27601782         -0.60230550          0.40028801
         -0.22556209       -506.06937519       -495.39431354       -189.45639036
         -0.49391882          0.85657482         -0.42504539
 Traceless Quadrup. (au):
         -2.62227335          5.49865807         -2.87638472          1.46592713
          0.03349899         -0.04442549
 Charge=             -0.0000 electrons
 Dipole moment (field-independent basis, Debye):
    X=              2.5829    Y=             -0.4482    Z=              0.0054  Tot=              2.6215
 Quadrupole moment (field-independent basis, Debye-Ang):
   XX=            -51.2958   YY=            -40.3729   ZZ=            -51.6376
   XY=              1.9717   XZ=              0.0451   YZ=             -0.0598
 Traceless Quadrupole moment (field-independent basis, Debye-Ang):
   XX=             -3.5270   YY=              7.3959   ZZ=             -3.8688
   XY=              1.9717   XZ=              0.0451   YZ=             -0.0598
 Octapole moment (field-independent basis, Debye-Ang**2):
  XXX=             34.4142  YYY=              1.0555  ZZZ=              0.0045  XYY=             -2.6792
  XXY=             -6.6377  XXZ=              0.0376  XZZ=             -3.3318  YZZ=              0.2421
  YYZ=             -0.0753  XYZ=             -0.2314
 Hexadecapole moment (field-independent basis, Debye-Ang**3):
 XXXX=           -975.5297 YYYY=           -296.7974 ZZZZ=            -60.8010 XXXY=             21.1201
 XXXZ=             -0.0221 YYYX=             -2.7405 YYYZ=             -0.2269 ZZZX=              0.1508
 ZZZY=             -0.0850 XXYY=           -190.6100 XXZZ=           -186.5893 YYZZ=            -71.3584
 XXYZ=             -0.1860 YYXZ=              0.3226 ZZXY=             -0.1601
 N-N= 3.234013948324D+02 E-N=-1.402936737856D+03  KE= 3.243000945828D+02
 Entering OneElI...
 OneElI was handed 25769692645 working-precision words.
 Calculate electrostatic properties
    NBasis =   225  MinDer = 0  MaxDer = 0
    NGrid  =    15  NMatD  =   1
 Requested accuracy = 0.1000D-12
 ShPair: Thresh= 1.00D-13 NBox=     0 BxSize= 0.00D+00 RnKept= 1.27D+01
         NSMCal=                 3486 NSMKep=                3229
 PrmmSu-InSpLW:  IPartL=    0 NPrtUS=   48 NPrtUL=    1 DoSpLW=F IThBeg=    0 IThEnd=   47 NThAct=   48.
 PrsmSu:  NPrtUS=  48 ThrOK=T IAlg=1 NPAlg=1 LenDen=           0 ISkipM=0 DoSpLW=F IThBeg=    0 IThEnd=   47.
 Prism:   IPart=     0 DynPar=F LinDyn=F Incr=          10.
 PRISM was handed   536794245 working-precision words and  3229 shell-pairs
 PRISM was handed   536794245 working-precision words and  3229 shell-pairs
 PRISM was handed   536794245 working-precision words and  3229 shell-pairs
 PRISM was handed   536794245 working-precision words and  3229 shell-pairs
 PRISM was handed   536794245 working-precision words and  3229 shell-pairs
 PRISM was handed   536794245 working-precision words and  3229 shell-pairs
 PRISM was handed   536794245 working-precision words and  3229 shell-pairs
 PRISM was handed   536794245 working-precision words and  3229 shell-pairs
 PRISM was handed   536794245 working-precision words and  3229 shell-pairs
 PRISM was handed   536794245 working-precision words and  3229 shell-pairs
 PRISM was handed   536794245 working-precision words and  3229 shell-pairs
 PRISM was handed   536794245 working-precision words and  3229 shell-pairs
 PRISM was handed   536794245 working-precision words and  3229 shell-pairs
 PRISM was handed   536794245 working-precision words and  3229 shell-pairs
 PRISM was handed   536794245 working-precision words and  3229 shell-pairs
 PRISM was handed   536794245 working-precision words and  3229 shell-pairs
 PRISM was handed   536794245 working-precision words and  3229 shell-pairs
 PRISM was handed   536794245 working-precision words and  3229 shell-pairs
 PRISM was handed   536794245 working-precision words and  3229 shell-pairs
 PRISM was handed   536794245 working-precision words and  3229 shell-pairs
 PRISM was handed   536794245 working-precision words and  3229 shell-pairs
 PRISM was handed   536794245 working-precision words and  3229 shell-pairs
 PRISM was handed   536794245 working-precision words and  3229 shell-pairs
 PRISM was handed   536794245 working-precision words and  3229 shell-pairs
 PRISM was handed   536794245 working-precision words and  3229 shell-pairs
 PRISM was handed   536794245 working-precision words and  3229 shell-pairs
 PRISM was handed   536794245 working-precision words and  3229 shell-pairs
 PRISM was handed   536794245 working-precision words and  3229 shell-pairs
 PRISM was handed   536794245 working-precision words and  3229 shell-pairs
 PRISM was handed   536794245 working-precision words and  3229 shell-pairs
 PRISM was handed   536794245 working-precision words and  3229 shell-pairs
 PRISM was handed   536794245 working-precision words and  3229 shell-pairs
 PRISM was handed   536794245 working-precision words and  3229 shell-pairs
 PRISM was handed   536794245 working-precision words and  3229 shell-pairs
 PRISM was handed   536794245 working-precision words and  3229 shell-pairs
 PRISM was handed   536794245 working-precision words and  3229 shell-pairs
 PRISM was handed   536794245 working-precision words and  3229 shell-pairs
 PRISM was handed   536794245 working-precision words and  3229 shell-pairs
 PRISM was handed   536794245 working-precision words and  3229 shell-pairs
 PRISM was handed   536794245 working-precision words and  3229 shell-pairs
 PRISM was handed   536794245 working-precision words and  3229 shell-pairs
 PRISM was handed   536794245 working-precision words and  3229 shell-pairs
 PRISM was handed   536794245 working-precision words and  3229 shell-pairs
 PRISM was handed   536794245 working-precision words and  3229 shell-pairs
 PRISM was handed   536794245 working-precision words and  3229 shell-pairs
 PRISM was handed   536794245 working-precision words and  3229 shell-pairs
 PRISM was handed   536794245 working-precision words and  3229 shell-pairs
 PRISM was handed   536794245 working-precision words and  3229 shell-pairs
 IPart= 16 NShTot=        1035 NBatch=          69 AvBLen=        15.0
 PrsmSu-ThDecC:  IPartSL=   16    0 NPrtUSL=   48    1 IThBeg=    0 IThEnd=   47 CPU=   -1 GPU=   -1 NThAct=   48.
 IPart= 10 NShTot=        1095 NBatch=          73 AvBLen=        15.0
 PrsmSu-ThDecC:  IPartSL=   10    0 NPrtUSL=   48    1 IThBeg=    0 IThEnd=   47 CPU=   -1 GPU=   -1 NThAct=   47.
 IPart=  3 NShTot=        1365 NBatch=          91 AvBLen=        15.0
 PrsmSu-ThDecC:  IPartSL=    3    0 NPrtUSL=   48    1 IThBeg=    0 IThEnd=   47 CPU=   -1 GPU=   -1 NThAct=   46.
 IPart=  2 NShTot=        1410 NBatch=          94 AvBLen=        15.0
 PrsmSu-ThDecC:  IPartSL=    2    0 NPrtUSL=   48    1 IThBeg=    0 IThEnd=   47 CPU=   -1 GPU=   -1 NThAct=   45.
 IPart=  0 NShTot=        1515 NBatch=         101 AvBLen=        15.0
 PrsmSu-ThDecC:  IPartSL=    0    0 NPrtUSL=   48    1 IThBeg=    0 IThEnd=   47 CPU=   -1 GPU=   -1 NThAct=   44.
 IPart= 45 NShTot=         825 NBatch=          55 AvBLen=        15.0
 PrsmSu-ThDecC:  IPartSL=   45    0 NPrtUSL=   48    1 IThBeg=    0 IThEnd=   47 CPU=   -1 GPU=   -1 NThAct=   43.
 IPart= 31 NShTot=         915 NBatch=          61 AvBLen=        15.0
 PrsmSu-ThDecC:  IPartSL=   31    0 NPrtUSL=   48    1 IThBeg=    0 IThEnd=   47 CPU=   -1 GPU=   -1 NThAct=   42.
 IPart=  1 NShTot=        1470 NBatch=          98 AvBLen=        15.0
 PrsmSu-ThDecC:  IPartSL=    1    0 NPrtUSL=   48    1 IThBeg=    0 IThEnd=   47 CPU=   -1 GPU=   -1 NThAct=   41.
 IPart= 33 NShTot=         885 NBatch=          59 AvBLen=        15.0
 PrsmSu-ThDecC:  IPartSL=   33    0 NPrtUSL=   48    1 IThBeg=    0 IThEnd=   47 CPU=   -1 GPU=   -1 NThAct=   40.
 IPart= 28 NShTot=         915 NBatch=          61 AvBLen=        15.0
 PrsmSu-ThDecC:  IPartSL=   28    0 NPrtUSL=   48    1 IThBeg=    0 IThEnd=   47 CPU=   -1 GPU=   -1 NThAct=   39.
 IPart= 39 NShTot=         840 NBatch=          56 AvBLen=        15.0
 PrsmSu-ThDecC:  IPartSL=   39    0 NPrtUSL=   48    1 IThBeg=    0 IThEnd=   47 CPU=   -1 GPU=   -1 NThAct=   38.
 IPart= 21 NShTot=         960 NBatch=          64 AvBLen=        15.0
 PrsmSu-ThDecC:  IPartSL=   21    0 NPrtUSL=   48    1 IThBeg=    0 IThEnd=   47 CPU=   -1 GPU=   -1 NThAct=   37.
 IPart=  8 NShTot=        1125 NBatch=          75 AvBLen=        15.0
 PrsmSu-ThDecC:  IPartSL=    8    0 NPrtUSL=   48    1 IThBeg=    0 IThEnd=   47 CPU=   -1 GPU=   -1 NThAct=   36.
 IPart= 47 NShTot=         825 NBatch=          55 AvBLen=        15.0
 PrsmSu-ThDecC:  IPartSL=   47    0 NPrtUSL=   48    1 IThBeg=    0 IThEnd=   47 CPU=   -1 GPU=   -1 NThAct=   35.
 IPart= 44 NShTot=         825 NBatch=          55 AvBLen=        15.0
 PrsmSu-ThDecC:  IPartSL=   44    0 NPrtUSL=   48    1 IThBeg=    0 IThEnd=   47 CPU=   -1 GPU=   -1 NThAct=   34.
 IPart= 19 NShTot=         960 NBatch=          64 AvBLen=        15.0
 PrsmSu-ThDecC:  IPartSL=   19    0 NPrtUSL=   48    1 IThBeg=    0 IThEnd=   47 CPU=   -1 GPU=   -1 NThAct=   33.
 IPart= 14 NShTot=        1050 NBatch=          70 AvBLen=        15.0
 PrsmSu-ThDecC:  IPartSL=   14    0 NPrtUSL=   48    1 IThBeg=    0 IThEnd=   47 CPU=   -1 GPU=   -1 NThAct=   32.
 IPart= 38 NShTot=         840 NBatch=          56 AvBLen=        15.0
 PrsmSu-ThDecC:  IPartSL=   38    0 NPrtUSL=   48    1 IThBeg=    0 IThEnd=   47 CPU=   -1 GPU=   -1 NThAct=   31.
 IPart= 11 NShTot=        1065 NBatch=          71 AvBLen=        15.0
 PrsmSu-ThDecC:  IPartSL=   11    0 NPrtUSL=   48    1 IThBeg=    0 IThEnd=   47 CPU=   -1 GPU=   -1 NThAct=   30.
 IPart=  5 NShTot=        1350 NBatch=          90 AvBLen=        15.0
 PrsmSu-ThDecC:  IPartSL=    5    0 NPrtUSL=   48    1 IThBeg=    0 IThEnd=   47 CPU=   -1 GPU=   -1 NThAct=   29.
 IPart= 23 NShTot=         960 NBatch=          64 AvBLen=        15.0
 PrsmSu-ThDecC:  IPartSL=   23    0 NPrtUSL=   48    1 IThBeg=    0 IThEnd=   47 CPU=   -1 GPU=   -1 NThAct=   28.
 IPart= 22 NShTot=         960 NBatch=          64 AvBLen=        15.0
 PrsmSu-ThDecC:  IPartSL=   22    0 NPrtUSL=   48    1 IThBeg=    0 IThEnd=   47 CPU=   -1 GPU=   -1 NThAct=   27.
 IPart= 15 NShTot=        1035 NBatch=          69 AvBLen=        15.0
 PrsmSu-ThDecC:  IPartSL=   15    0 NPrtUSL=   48    1 IThBeg=    0 IThEnd=   47 CPU=   -1 GPU=   -1 NThAct=   26.
 IPart= 46 NShTot=         825 NBatch=          55 AvBLen=        15.0
 PrsmSu-ThDecC:  IPartSL=   46    0 NPrtUSL=   48    1 IThBeg=    0 IThEnd=   47 CPU=   -1 GPU=   -1 NThAct=   25.
 IPart= 18 NShTot=         990 NBatch=          66 AvBLen=        15.0
 PrsmSu-ThDecC:  IPartSL=   18    0 NPrtUSL=   48    1 IThBeg=    0 IThEnd=   47 CPU=   -1 GPU=   -1 NThAct=   24.
 IPart= 32 NShTot=         900 NBatch=          60 AvBLen=        15.0
 PrsmSu-ThDecC:  IPartSL=   32    0 NPrtUSL=   48    1 IThBeg=    0 IThEnd=   47 CPU=   -1 GPU=   -1 NThAct=   23.
 IPart= 30 NShTot=         915 NBatch=          61 AvBLen=        15.0
 PrsmSu-ThDecC:  IPartSL=   30    0 NPrtUSL=   48    1 IThBeg=    0 IThEnd=   47 CPU=   -1 GPU=   -1 NThAct=   22.
 IPart= 17 NShTot=        1020 NBatch=          68 AvBLen=        15.0
 PrsmSu-ThDecC:  IPartSL=   17    0 NPrtUSL=   48    1 IThBeg=    0 IThEnd=   47 CPU=   -1 GPU=   -1 NThAct=   21.
 IPart= 43 NShTot=         825 NBatch=          55 AvBLen=        15.0
 PrsmSu-ThDecC:  IPartSL=   43    0 NPrtUSL=   48    1 IThBeg=    0 IThEnd=   47 CPU=   -1 GPU=   -1 NThAct=   20.
 IPart=  4 NShTot=        1365 NBatch=          91 AvBLen=        15.0
 PrsmSu-ThDecC:  IPartSL=    4    0 NPrtUSL=   48    1 IThBeg=    0 IThEnd=   47 CPU=   -1 GPU=   -1 NThAct=   19.
 IPart= 27 NShTot=         915 NBatch=          61 AvBLen=        15.0
 PrsmSu-ThDecC:  IPartSL=   27    0 NPrtUSL=   48    1 IThBeg=    0 IThEnd=   47 CPU=   -1 GPU=   -1 NThAct=   18.
 IPart= 34 NShTot=         885 NBatch=          59 AvBLen=        15.0
 PrsmSu-ThDecC:  IPartSL=   34    0 NPrtUSL=   48    1 IThBeg=    0 IThEnd=   47 CPU=   -1 GPU=   -1 NThAct=   17.
 IPart= 24 NShTot=         960 NBatch=          64 AvBLen=        15.0
 PrsmSu-ThDecC:  IPartSL=   24    0 NPrtUSL=   48    1 IThBeg=    0 IThEnd=   47 CPU=   -1 GPU=   -1 NThAct=   16.
 IPart= 29 NShTot=         915 NBatch=          61 AvBLen=        15.0
 PrsmSu-ThDecC:  IPartSL=   29    0 NPrtUSL=   48    1 IThBeg=    0 IThEnd=   47 CPU=   -1 GPU=   -1 NThAct=   15.
 IPart=  7 NShTot=        1230 NBatch=          82 AvBLen=        15.0
 PrsmSu-ThDecC:  IPartSL=    7    0 NPrtUSL=   48    1 IThBeg=    0 IThEnd=   47 CPU=   -1 GPU=   -1 NThAct=   14.
 IPart= 25 NShTot=         945 NBatch=          63 AvBLen=        15.0
 PrsmSu-ThDecC:  IPartSL=   25    0 NPrtUSL=   48    1 IThBeg=    0 IThEnd=   47 CPU=   -1 GPU=   -1 NThAct=   13.
 IPart= 20 NShTot=         960 NBatch=          64 AvBLen=        15.0
 PrsmSu-ThDecC:  IPartSL=   20    0 NPrtUSL=   48    1 IThBeg=    0 IThEnd=   47 CPU=   -1 GPU=   -1 NThAct=   12.
 IPart= 37 NShTot=         855 NBatch=          57 AvBLen=        15.0
 PrsmSu-ThDecC:  IPartSL=   37    0 NPrtUSL=   48    1 IThBeg=    0 IThEnd=   47 CPU=   -1 GPU=   -1 NThAct=   11.
 IPart= 40 NShTot=         840 NBatch=          56 AvBLen=        15.0
 PrsmSu-ThDecC:  IPartSL=   40    0 NPrtUSL=   48    1 IThBeg=    0 IThEnd=   47 CPU=   -1 GPU=   -1 NThAct=   10.
 IPart= 42 NShTot=         840 NBatch=          56 AvBLen=        15.0
 IPart= 41 NShTot=         840 NBatch=          56 AvBLen=        15.0
 IPart= 35 NShTot=         855 NBatch=          57 AvBLen=        15.0
 PrsmSu-ThDecC:  IPartSL=   42    0 NPrtUSL=   48    1 IThBeg=    0 IThEnd=   47 CPU=   -1 GPU=   -1 NThAct=    9.
 PrsmSu-ThDecC:  IPartSL=   35    0 NPrtUSL=   48    1 IThBeg=    0 IThEnd=   47 CPU=   -1 GPU=   -1 NThAct=    8.
 PrsmSu-ThDecC:  IPartSL=   41    0 NPrtUSL=   48    1 IThBeg=    0 IThEnd=   47 CPU=   -1 GPU=   -1 NThAct=    7.
 IPart= 36 NShTot=         855 NBatch=          57 AvBLen=        15.0
 PrsmSu-ThDecC:  IPartSL=   36    0 NPrtUSL=   48    1 IThBeg=    0 IThEnd=   47 CPU=   -1 GPU=   -1 NThAct=    6.
 IPart= 12 NShTot=        1065 NBatch=          71 AvBLen=        15.0
 PrsmSu-ThDecC:  IPartSL=   12    0 NPrtUSL=   48    1 IThBeg=    0 IThEnd=   47 CPU=   -1 GPU=   -1 NThAct=    5.
 IPart= 26 NShTot=         930 NBatch=          62 AvBLen=        15.0
 PrsmSu-ThDecC:  IPartSL=   26    0 NPrtUSL=   48    1 IThBeg=    0 IThEnd=   47 CPU=   -1 GPU=   -1 NThAct=    4.
 IPart= 13 NShTot=        1065 NBatch=          71 AvBLen=        15.0
 PrsmSu-ThDecC:  IPartSL=   13    0 NPrtUSL=   48    1 IThBeg=    0 IThEnd=   47 CPU=   -1 GPU=   -1 NThAct=    3.
 IPart=  9 NShTot=        1125 NBatch=          75 AvBLen=        15.0
 PrsmSu-ThDecC:  IPartSL=    9    0 NPrtUSL=   48    1 IThBeg=    0 IThEnd=   47 CPU=   -1 GPU=   -1 NThAct=    2.
 IPart=  6 NShTot=        1290 NBatch=          86 AvBLen=        15.0
 PrsmSu-ThDecC:  IPartSL=    6    0 NPrtUSL=   48    1 IThBeg=    0 IThEnd=   47 CPU=   -1 GPU=   -1 NThAct=    1.
 PrSmSu:  NxtVal=            481.
 --------------------------------------------------------
       Center         ----      EFG at Nuclei      ----
                      3XX-RR        3YY-RR        3ZZ-RR
 --------------------------------------------------------
     1   Atom       -0.277572      0.110237      0.167335
     2   Atom        0.174203      0.152830     -0.327033
     3   Atom        0.135296     -0.304263      0.168966
     4   Atom        0.136360      0.175420     -0.311781
     5   Atom        0.117937     -0.284526      0.166589
     6   Atom        0.146503      0.228466     -0.374969
     7   Atom        0.160546      0.121825     -0.282371
     8   Atom       -0.034005     -0.137814      0.171819
     9   Atom        0.187136      0.154247     -0.341383
    10   Atom        0.084039     -0.249325      0.165286
    11   Atom        1.024898     -0.303758     -0.721140
    12   Atom        0.239224      0.104789     -0.344013
    13   Atom       -0.071350     -0.093786      0.165136
    14   Atom        0.187374      0.103492     -0.290866
    15   Atom        0.106828     -0.277216      0.170388
 --------------------------------------------------------
                        XY            XZ            YZ
 --------------------------------------------------------
     1   Atom        0.130544      0.000161      0.000068
     2   Atom        0.057941     -0.009150     -0.010747
     3   Atom        0.081035     -0.000481      0.002596
     4   Atom        0.089164     -0.003284     -0.009493
     5   Atom        0.102574     -0.002628      0.013207
     6   Atom        0.023009      0.003163     -0.000201
     7   Atom       -0.025080      0.000892      0.000194
     8   Atom       -0.225912      0.003415      0.004639
     9   Atom       -0.078029      0.002240     -0.001009
    10   Atom        0.156481     -0.000893      0.002254
    11   Atom       -0.265852      0.007798     -0.000488
    12   Atom        0.044541      0.005469      0.003192
    13   Atom       -0.228330     -0.003372     -0.003664
    14   Atom        0.009310      0.002459      0.001512
    15   Atom        0.127432      0.000204     -0.002327
 --------------------------------------------------------


 ---------------------------------------------------------------------------------
              Nuclear Quadrupole Coupling Constant in Principal Axis System
 ---------------------------------------------------------------------------------

       Atom             a.u.   MegaHertz   Gauss  10(-4) cm-1        Axes

              Baa    -0.7212     3.464     1.236     1.155 -0.0047 -0.0019  1.0000
    11 N(14)  Bbb    -0.3550     1.705     0.608     0.569  0.1892  0.9819  0.0027
              Bcc     1.0762    -5.168    -1.844    -1.724  0.9819 -0.1892  0.0043
 

 ---------------------------------------------------------------------------------

 No NMR shielding tensors so no spin-rotation constants.
 Leave Link  601 at Thu Apr 21 16:29:12 2022, MaxMem= 25769803776 cpu:              10.3 elap:               0.3
 Calling FoFJK, ICntrl=      2127 FMM=F ISym2X=0 I1Cent= 0 IOpClX= 0 NMat=1 NMatS=1 NMatT=0.
 ***** Axes restored to original set *****
 -------------------------------------------------------------------
 Center     Atomic                   Forces (Hartrees/Bohr)
 Number     Number              X              Y              Z
 -------------------------------------------------------------------
      1        1           0.001650244    0.000143453    0.001231844
      2        6          -0.003177347   -0.000892853   -0.005766988
      3        1          -0.000970267   -0.001206185   -0.000876421
      4        6          -0.002139646    0.005235661    0.006794664
      5        1           0.001257427   -0.000810515    0.001119476
      6        6          -0.011398794   -0.005168067   -0.001371645
      7        6           0.004913870    0.000673200    0.000839910
      8        1           0.000321200    0.000223377   -0.001830832
      9        6           0.007296189   -0.003343343   -0.007514166
     10        1          -0.000959850    0.000196306    0.000358097
     11        7          -0.010851690   -0.000667917   -0.002373507
     12        6           0.012379340    0.003198733    0.008833376
     13        1          -0.000932652   -0.000222446   -0.000304294
     14        6           0.003827031    0.002056044   -0.000773245
     15        1          -0.001215054    0.000584554    0.001633732
 -------------------------------------------------------------------
 Cartesian Forces:  Max     0.012379340 RMS     0.004302038

 GradGradGradGradGradGradGradGradGradGradGradGradGradGradGradGradGradGrad
 Berny optimization.
 FormGI is forming the generalized inverse of G from B-inverse, IUseBI=4.
 Internal  Forces:  Max     0.011856267 RMS     0.002965406
 Search for a local minimum.
 Step number   1 out of a maximum of   75
 All quantities printed in internal units (Hartrees-Bohrs-Radians)
 Mixed Optimization -- RFO/linear search
 Second derivative matrix not updated -- first step.
 ITU=  0
     Eigenvalues ---    0.01166   0.01842   0.02051   0.02158   0.02197
     Eigenvalues ---    0.02210   0.02256   0.02294   0.02303   0.02340
     Eigenvalues ---    0.02892   0.02893   0.15998   0.15999   0.15999
     Eigenvalues ---    0.16000   0.16000   0.16000   0.16000   0.21998
     Eigenvalues ---    0.22001   0.22819   0.23876   0.24975   0.35053
     Eigenvalues ---    0.35264   0.35266   0.35303   0.35387   0.35404
     Eigenvalues ---    0.35518   0.35769   0.43095   0.44099   0.46726
     Eigenvalues ---    0.47974   0.53332   0.54515   0.57372
 RFO step:  Lambda=-2.04515440D-03 EMin= 1.16598490D-02
 Linear search not attempted -- first point.
 Iteration  1 RMS(Cart)=  0.03723298 RMS(Int)=  0.00055334
 Iteration  2 RMS(Cart)=  0.00086094 RMS(Int)=  0.00019846
 Iteration  3 RMS(Cart)=  0.00000044 RMS(Int)=  0.00019846
 Variable       Old X    -DE/DX   Delta X   Delta X   Delta X     New X
                                 (Linear)    (Quad)   (Total)
    R1        2.05186  -0.00175   0.00000  -0.00493  -0.00493   2.04693
    R2        2.05023  -0.00151   0.00000  -0.00425  -0.00425   2.04598
    R3        2.53083  -0.00327   0.00000  -0.00568  -0.00568   2.52515
    R4        2.05589  -0.00127   0.00000  -0.00360  -0.00360   2.05229
    R5        2.77744   0.00336   0.00000   0.00934   0.00934   2.78678
    R6        2.63880   0.00301   0.00000   0.00754   0.00759   2.64639
    R7        2.63791   0.00245   0.00000   0.00631   0.00636   2.64427
    R8        2.04842  -0.00161   0.00000  -0.00451  -0.00451   2.04391
    R9        2.61921   0.00247   0.00000   0.00511   0.00512   2.62433
   R10        2.05246  -0.00021   0.00000  -0.00058  -0.00058   2.05187
   R11        2.54883  -0.00816   0.00000  -0.01555  -0.01560   2.53322
   R12        2.54972  -0.01186   0.00000  -0.02229  -0.02234   2.52738
   R13        2.05249  -0.00018   0.00000  -0.00051  -0.00051   2.05198
   R14        2.62010   0.00449   0.00000   0.00925   0.00925   2.62934
   R15        2.05051  -0.00093   0.00000  -0.00262  -0.00262   2.04788
    A1        2.03975  -0.00102   0.00000  -0.00617  -0.00630   2.03345
    A2        2.09994   0.00117   0.00000   0.00733   0.00720   2.10714
    A3        2.14334  -0.00013   0.00000  -0.00066  -0.00079   2.14255
    A4        2.07698  -0.00353   0.00000  -0.01430  -0.01443   2.06256
    A5        2.17579   0.00871   0.00000   0.03932   0.03920   2.21498
    A6        2.03022  -0.00517   0.00000  -0.02448  -0.02460   2.00562
    A7        2.13927   0.00676   0.00000   0.02558   0.02514   2.16441
    A8        2.07894   0.00192   0.00000   0.00636   0.00592   2.08487
    A9        2.06416  -0.00864   0.00000  -0.03002  -0.03028   2.03388
   A10        2.12635  -0.00144   0.00000  -0.00820  -0.00825   2.11810
   A11        2.07209   0.00197   0.00000   0.01088   0.01092   2.08301
   A12        2.08470  -0.00053   0.00000  -0.00258  -0.00262   2.08207
   A13        2.10948  -0.00197   0.00000  -0.00936  -0.00935   2.10013
   A14        2.16251   0.00184   0.00000   0.00581   0.00575   2.16826
   A15        2.01118   0.00013   0.00000   0.00359   0.00360   2.01478
   A16        2.03317   0.00101   0.00000  -0.00238  -0.00253   2.03064
   A17        2.01054   0.00083   0.00000   0.00677   0.00679   2.01733
   A18        2.16156   0.00035   0.00000  -0.00107  -0.00112   2.16044
   A19        2.11109  -0.00119   0.00000  -0.00569  -0.00567   2.10542
   A20        2.07259   0.00348   0.00000   0.01750   0.01753   2.09012
   A21        2.12233  -0.00369   0.00000  -0.02070  -0.02075   2.10158
   A22        2.08821   0.00021   0.00000   0.00332   0.00327   2.09148
    D1        0.01153  -0.00010   0.00000  -0.00737  -0.00741   0.00412
    D2        3.13121   0.00058   0.00000   0.02265   0.02268  -3.12930
    D3       -3.11054  -0.00106   0.00000  -0.03821  -0.03824   3.13441
    D4        0.00914  -0.00038   0.00000  -0.00819  -0.00816   0.00099
    D5        0.00004  -0.00065   0.00000  -0.03092  -0.03128  -0.03124
    D6        3.09762   0.00023   0.00000   0.02057   0.02099   3.11861
    D7        3.12025   0.00003   0.00000  -0.00154  -0.00196   3.11829
    D8       -0.06536   0.00091   0.00000   0.04995   0.05031  -0.01505
    D9       -0.00824   0.00015   0.00000   0.01132   0.01141   0.00317
   D10        3.12255   0.00040   0.00000   0.02159   0.02170  -3.13894
   D11       -3.10617  -0.00098   0.00000  -0.04062  -0.04029   3.13672
   D12        0.02462  -0.00072   0.00000  -0.03034  -0.03000  -0.00539
   D13       -3.12464  -0.00048   0.00000  -0.01909  -0.01853   3.14001
   D14        0.02803  -0.00073   0.00000  -0.03084  -0.03034  -0.00231
   D15       -0.02517   0.00074   0.00000   0.03155   0.03123   0.00607
   D16        3.12750   0.00049   0.00000   0.01979   0.01943  -3.13625
   D17        3.13703  -0.00001   0.00000   0.00141   0.00150   3.13854
   D18       -0.00959   0.00018   0.00000   0.01129   0.01153   0.00194
   D19       -0.01510   0.00023   0.00000   0.01140   0.01154  -0.00356
   D20        3.12146   0.00043   0.00000   0.02128   0.02157  -3.14016
   D21       -0.00523   0.00013   0.00000   0.00624   0.00627   0.00104
   D22        3.13159   0.00030   0.00000   0.01557   0.01582  -3.13578
   D23       -3.13565  -0.00009   0.00000  -0.00605  -0.00615   3.14138
   D24        0.00463  -0.00008   0.00000  -0.00483  -0.00494  -0.00031
   D25        0.01078  -0.00027   0.00000  -0.01401  -0.01415  -0.00338
   D26        3.14151  -0.00005   0.00000  -0.00265  -0.00257   3.13894
   D27       -3.13221  -0.00025   0.00000  -0.01271  -0.01287   3.13811
   D28       -0.00147  -0.00003   0.00000  -0.00135  -0.00129  -0.00276
         Item               Value     Threshold  Converged?
 Maximum Force            0.011856     0.000450     NO 
 RMS     Force            0.002965     0.000300     NO 
 Maximum Displacement     0.162045     0.001800     NO 
 RMS     Displacement     0.036952     0.001200     NO 
 Predicted change in Energy=-1.042468D-03
 GradGradGradGradGradGradGradGradGradGradGradGradGradGradGradGradGradGrad

                          Input orientation:                          
 ---------------------------------------------------------------------
 Center     Atomic      Atomic             Coordinates (Angstroms)
 Number     Number       Type             X           Y           Z
 ---------------------------------------------------------------------
      1          1           0        0.979756   -0.701084    0.379663
      2          6           0        2.055727   -0.669659    0.500505
      3          1           0        2.424450   -0.335113    1.461925
      4          6           0        2.865793   -1.041335   -0.495095
      5          1           0        2.415423   -1.370861   -1.426775
      6          6           0        4.340139   -1.066539   -0.474743
      7          6           0        5.115592   -0.657049    0.617108
      8          1           0        4.658362   -0.293905    1.527552
      9          6           0        6.500206   -0.718852    0.529891
     10          1           0        7.116890   -0.402741    1.365802
     11          7           0        7.169376   -1.149933   -0.548713
     12          6           0        6.427448   -1.537378   -1.591858
     13          1           0        6.981970   -1.883971   -2.458734
     14          6           0        5.036325   -1.512777   -1.603546
     15          1           0        4.498745   -1.839703   -2.485882
 ---------------------------------------------------------------------
                    Distance matrix (angstroms):
                    1          2          3          4          5
     1  H    0.000000
     2  C    1.083191   0.000000
     3  H    1.841837   1.082685   0.000000
     4  C    2.106682   1.336252   2.126843   0.000000
     5  H    2.402698   2.082179   3.068785   1.086024   0.000000
     6  C    3.486508   2.515384   2.820555   1.474701   2.168757
     7  C    4.142880   3.062112   2.838944   2.538949   3.460910
     8  H    3.874994   2.823070   2.235256   2.804114   3.862468
     9  C    5.522521   4.444848   4.198539   3.789926   4.575927
    10  H    6.223012   5.141532   4.693912   4.684288   5.553335
    11  N    6.274929   5.242225   5.217367   4.305286   4.839408
    12  C    5.853514   4.923704   5.176391   3.759565   4.018871
    13  H    6.744056   5.873629   6.208182   4.637761   4.709732
    14  C    4.587779   3.744575   4.195939   2.482364   2.630688
    15  H    4.678791   4.031853   4.706556   2.695766   2.383643
                    6          7          8          9         10
     6  C    0.000000
     7  C    1.400410   0.000000
     8  H    2.169658   1.081592   0.000000
     9  C    2.407502   1.388734   2.137358   0.000000
    10  H    3.396849   2.151838   2.466246   1.085805   0.000000
    11  N    2.831432   2.412488   3.368806   1.340524   2.055825
    12  C    2.413813   2.715783   3.795604   2.275324   3.241988
    13  H    3.403482   3.801251   4.880364   3.243683   4.103575
    14  C    1.399286   2.381147   3.381166   2.706440   3.791828
    15  H    2.160467   3.377531   4.303791   3.789068   4.873911
                   11         12         13         14         15
    11  N    0.000000
    12  C    1.337432   0.000000
    13  H    2.054779   1.085862   0.000000
    14  C    2.407122   1.391389   2.157467   0.000000
    15  H    3.370560   2.147224   2.483768   1.083692   0.000000
 Stoichiometry    C7H7N
 Framework group  C1[X(C7H7N)]
 Deg. of freedom    39
 Full point group                 C1      NOp   1
 Largest Abelian subgroup         C1      NOp   1
 Largest concise Abelian subgroup C1      NOp   1
                         Standard orientation:                         
 ---------------------------------------------------------------------
 Center     Atomic      Atomic             Coordinates (Angstroms)
 Number     Number       Type             X           Y           Z
 ---------------------------------------------------------------------
      1          1           0        3.985865   -0.010200   -0.013233
      2          6           0        2.959068    0.334739   -0.010326
      3          1           0        2.809351    1.406728   -0.035464
      4          6           0        1.946126   -0.536511    0.010644
      5          1           0        2.181754   -1.596514    0.028581
      6          6           0        0.505734   -0.220362    0.002732
      7          6           0       -0.010566    1.081392    0.007330
      8          1           0        0.640464    1.945079    0.014279
      9          6           0       -1.386720    1.267820    0.002254
     10          1           0       -1.804263    2.270113    0.008569
     11          7           0       -2.282764    0.270794   -0.004804
     12          6           0       -1.788119   -0.971804   -0.005685
     13          1           0       -2.524625   -1.769691   -0.011223
     14          6           0       -0.427543   -1.262949   -0.000138
     15          1           0       -0.097081   -2.295025    0.001254
 ---------------------------------------------------------------------
 Rotational constants (GHZ):           5.4799733           1.5367336           1.2002113
 Standard basis: 6-311++G(d,p) (5D, 7F)
 There are   233 symmetry adapted cartesian basis functions of A   symmetry.
 There are   225 symmetry adapted basis functions of A   symmetry.
   225 basis functions,   351 primitive gaussians,   233 cartesian basis functions
    28 alpha electrons       28 beta electrons
       nuclear repulsion energy       322.8040273266 Hartrees.
 NAtoms=   15 NActive=   15 NUniq=   15 SFac= 1.00D+00 NAtFMM=   60 NAOKFM=F Big=F
 Integral buffers will be    131072 words long.
 Raffenetti 2 integral format.
 Two-electron integral symmetry is turned on.
 Nuclear repulsion after empirical dispersion term =      322.7782410620 Hartrees.
 One-electron integrals computed using PRISM.
 NBasis=   225 RedAO= T EigKep=  2.46D-06  NBF=   225
 NBsUse=   225 1.00D-06 EigRej= -1.00D+00 NBFU=   225
 Initial guess from the checkpoint file:  "4VP-1.chk"
 B after Tr=    -0.000000   -0.000000   -0.000000
         Rot=    0.999995    0.000117    0.000042   -0.003028 Ang=   0.35 deg.
 ExpMin= 3.60D-02 ExpMax= 6.29D+03 ExpMxC= 9.49D+02 IAcc=3 IRadAn=         5 AccDes= 0.00D+00
 Harris functional with IExCor=  402 and IRadAn=       5 diagonalized for initial guess.
 HarFok:  IExCor=  402 AccDes= 0.00D+00 IRadAn=         5 IDoV= 1 UseB2=F ITyADJ=14
 ICtDFT=  3500011 ScaDFX=  1.000000  1.000000  1.000000  1.000000
 FoFCou: FMM=F IPFlag=           0 FMFlag=      100000 FMFlg1=           0
         NFxFlg=           0 DoJE=T BraDBF=F KetDBF=T FulRan=T
         wScrn=  0.000000 ICntrl=       500 IOpCl=  0 I1Cent=   200000004 NGrid=           0
         NMat0=    1 NMatS0=      1 NMatT0=    0 NMatD0=    1 NMtDS0=    0 NMtDT0=    0
 Petite list used in FoFCou.
 Requested convergence on RMS density matrix=1.00D-08 within 128 cycles.
 Requested convergence on MAX density matrix=1.00D-06.
 Requested convergence on             energy=1.00D-06.
 No special actions if energy rises.
 SCF Done:  E(RB3LYP) =  -325.797121424     A.U. after   12 cycles
            NFock= 12  Conv=0.32D-08     -V/T= 2.0046
 Calling FoFJK, ICntrl=      2127 FMM=F ISym2X=0 I1Cent= 0 IOpClX= 0 NMat=1 NMatS=1 NMatT=0.
 ***** Axes restored to original set *****
 -------------------------------------------------------------------
 Center     Atomic                   Forces (Hartrees/Bohr)
 Number     Number              X              Y              Z
 -------------------------------------------------------------------
      1        1           0.000156019    0.000380316   -0.000076582
      2        6           0.000909300   -0.000997564   -0.001239362
      3        1           0.000521304    0.000375262    0.000735757
      4        6           0.001823024    0.000065694    0.001879058
      5        1           0.000397533   -0.000248926   -0.000826473
      6        6          -0.003465648    0.000758721   -0.001137316
      7        6           0.000745292   -0.000309301    0.000421553
      8        1          -0.000615574    0.000294763    0.000580963
      9        6           0.002010952    0.000039588   -0.000670320
     10        1          -0.000747738    0.000113184    0.000745894
     11        7          -0.003542547   -0.000064392   -0.000322234
     12        6           0.002697858    0.000355878    0.001355093
     13        1          -0.000973650   -0.000192977   -0.000736456
     14        6           0.000410257   -0.000424696   -0.000498087
     15        1          -0.000326381   -0.000145550   -0.000211490
 -------------------------------------------------------------------
 Cartesian Forces:  Max     0.003542547 RMS     0.001131168

 GradGradGradGradGradGradGradGradGradGradGradGradGradGradGradGradGradGrad
 Berny optimization.
 Using GEDIIS/GDIIS optimizer.
 FormGI is forming the generalized inverse of G from B-inverse, IUseBI=4.
 Internal  Forces:  Max     0.003820387 RMS     0.000769480
 Search for a local minimum.
 Step number   2 out of a maximum of   75
 All quantities printed in internal units (Hartrees-Bohrs-Radians)
 Mixed Optimization -- En-DIIS/RFO-DIIS
 Update second derivatives using D2CorX and points    1    2
 DE= -9.25D-04 DEPred=-1.04D-03 R= 8.87D-01
 TightC=F SS=  1.41D+00  RLast= 1.40D-01 DXNew= 5.0454D-01 4.1996D-01
 Trust test= 8.87D-01 RLast= 1.40D-01 DXMaxT set to 4.20D-01
 ITU=  1  0
 Use linear search instead of GDIIS.
     Eigenvalues ---    0.01166   0.01880   0.02079   0.02165   0.02196
     Eigenvalues ---    0.02210   0.02256   0.02294   0.02308   0.02340
     Eigenvalues ---    0.02882   0.02933   0.14932   0.16000   0.16000
     Eigenvalues ---    0.16000   0.16000   0.16000   0.16094   0.21990
     Eigenvalues ---    0.22181   0.22672   0.24577   0.26448   0.35065
     Eigenvalues ---    0.35230   0.35264   0.35267   0.35387   0.35423
     Eigenvalues ---    0.35524   0.38380   0.42990   0.43373   0.46716
     Eigenvalues ---    0.48205   0.51522   0.54486   0.57299
 RFO step:  Lambda=-1.25783884D-04 EMin= 1.16602368D-02
 Quartic linear search produced a step of -0.07672.
 Iteration  1 RMS(Cart)=  0.00711700 RMS(Int)=  0.00002442
 Iteration  2 RMS(Cart)=  0.00002616 RMS(Int)=  0.00001427
 Iteration  3 RMS(Cart)=  0.00000000 RMS(Int)=  0.00001427
 Variable       Old X    -DE/DX   Delta X   Delta X   Delta X     New X
                                 (Linear)    (Quad)   (Total)
    R1        2.04693  -0.00016   0.00038  -0.00110  -0.00072   2.04621
    R2        2.04598   0.00095   0.00033   0.00188   0.00220   2.04818
    R3        2.52515  -0.00146   0.00044  -0.00314  -0.00271   2.52244
    R4        2.05229   0.00062   0.00028   0.00113   0.00141   2.05369
    R5        2.78678  -0.00382  -0.00072  -0.00856  -0.00927   2.77751
    R6        2.64639   0.00051  -0.00058   0.00217   0.00158   2.64798
    R7        2.64427   0.00026  -0.00049   0.00151   0.00102   2.64529
    R8        2.04391   0.00085   0.00035   0.00158   0.00192   2.04583
    R9        2.62433  -0.00044  -0.00039  -0.00013  -0.00052   2.62380
   R10        2.05187   0.00018   0.00004   0.00040   0.00044   2.05232
   R11        2.53322  -0.00065   0.00120  -0.00334  -0.00213   2.53109
   R12        2.52738  -0.00109   0.00171  -0.00502  -0.00330   2.52408
   R13        2.05198   0.00015   0.00004   0.00033   0.00037   2.05235
   R14        2.62934  -0.00011  -0.00071   0.00107   0.00036   2.62971
   R15        2.04788   0.00038   0.00020   0.00062   0.00082   2.04870
    A1        2.03345   0.00012   0.00048  -0.00019   0.00029   2.03374
    A2        2.10714   0.00020  -0.00055   0.00217   0.00160   2.10874
    A3        2.14255  -0.00031   0.00006  -0.00189  -0.00184   2.14071
    A4        2.06256   0.00140   0.00111   0.00503   0.00614   2.06870
    A5        2.21498  -0.00133  -0.00301  -0.00014  -0.00314   2.21184
    A6        2.00562  -0.00007   0.00189  -0.00487  -0.00298   2.00264
    A7        2.16441  -0.00128  -0.00193  -0.00154  -0.00344   2.16097
    A8        2.08487   0.00074  -0.00045   0.00323   0.00280   2.08767
    A9        2.03388   0.00054   0.00232  -0.00167   0.00066   2.03454
   A10        2.11810  -0.00017   0.00063  -0.00254  -0.00191   2.11619
   A11        2.08301  -0.00024  -0.00084   0.00096   0.00012   2.08313
   A12        2.08207   0.00041   0.00020   0.00159   0.00179   2.08387
   A13        2.10013  -0.00062   0.00072  -0.00554  -0.00483   2.09531
   A14        2.16826  -0.00088  -0.00044  -0.00289  -0.00333   2.16493
   A15        2.01478   0.00150  -0.00028   0.00845   0.00817   2.02295
   A16        2.03064   0.00167   0.00019   0.00552   0.00573   2.03637
   A17        2.01733   0.00153  -0.00052   0.00933   0.00880   2.02613
   A18        2.16044  -0.00054   0.00009  -0.00243  -0.00234   2.15810
   A19        2.10542  -0.00099   0.00043  -0.00689  -0.00646   2.09895
   A20        2.09012  -0.00055  -0.00134   0.00053  -0.00082   2.08930
   A21        2.10158   0.00011   0.00159  -0.00287  -0.00127   2.10031
   A22        2.09148   0.00044  -0.00025   0.00234   0.00209   2.09357
    D1        0.00412  -0.00025   0.00057  -0.00771  -0.00713  -0.00301
    D2       -3.12930  -0.00043  -0.00174  -0.01176  -0.01351   3.14037
    D3        3.13441   0.00019   0.00293   0.00213   0.00507   3.13948
    D4        0.00099   0.00001   0.00063  -0.00193  -0.00131  -0.00033
    D5       -0.03124   0.00020   0.00240   0.00533   0.00775  -0.02349
    D6        3.11861  -0.00000  -0.00161   0.00225   0.00061   3.11921
    D7        3.11829   0.00002   0.00015   0.00135   0.00154   3.11983
    D8       -0.01505  -0.00018  -0.00386  -0.00173  -0.00561  -0.02065
    D9        0.00317  -0.00011  -0.00088  -0.00409  -0.00497  -0.00180
   D10       -3.13894  -0.00008  -0.00166  -0.00134  -0.00301   3.14124
   D11        3.13672   0.00009   0.00309  -0.00108   0.00199   3.13871
   D12       -0.00539   0.00012   0.00230   0.00167   0.00395  -0.00144
   D13        3.14001   0.00008   0.00142   0.00186   0.00326  -3.13992
   D14       -0.00231   0.00008   0.00233   0.00043   0.00273   0.00042
   D15        0.00607  -0.00010  -0.00240  -0.00098  -0.00336   0.00271
   D16       -3.13625  -0.00010  -0.00149  -0.00241  -0.00388  -3.14013
   D17        3.13854   0.00008  -0.00012   0.00300   0.00286   3.14140
   D18        0.00194  -0.00007  -0.00088  -0.00158  -0.00248  -0.00054
   D19       -0.00356   0.00011  -0.00089   0.00568   0.00478   0.00122
   D20       -3.14016  -0.00004  -0.00165   0.00111  -0.00056  -3.14072
   D21        0.00104  -0.00000  -0.00048   0.00064   0.00016   0.00119
   D22       -3.13578  -0.00014  -0.00121  -0.00370  -0.00495  -3.14073
   D23        3.14138  -0.00000   0.00047  -0.00060  -0.00012   3.14126
   D24       -0.00031   0.00002   0.00038   0.00012   0.00050   0.00019
   D25       -0.00338   0.00004   0.00109   0.00008   0.00118  -0.00219
   D26        3.13894   0.00004   0.00020   0.00151   0.00171   3.14064
   D27        3.13811   0.00006   0.00099   0.00084   0.00183   3.13994
   D28       -0.00276   0.00006   0.00010   0.00226   0.00236  -0.00041
         Item               Value     Threshold  Converged?
 Maximum Force            0.003820     0.000450     NO 
 RMS     Force            0.000769     0.000300     NO 
 Maximum Displacement     0.028888     0.001800     NO 
 RMS     Displacement     0.007124     0.001200     NO 
 Predicted change in Energy=-6.887117D-05
 GradGradGradGradGradGradGradGradGradGradGradGradGradGradGradGradGradGrad

                          Input orientation:                          
 ---------------------------------------------------------------------
 Center     Atomic      Atomic             Coordinates (Angstroms)
 Number     Number       Type             X           Y           Z
 ---------------------------------------------------------------------
      1          1           0        0.987913   -0.692970    0.384700
      2          6           0        2.064118   -0.671722    0.502210
      3          1           0        2.439737   -0.334086    1.461191
      4          6           0        2.868535   -1.045261   -0.495349
      5          1           0        2.419515   -1.374447   -1.428667
      6          6           0        4.338084   -1.066283   -0.478611
      7          6           0        5.111394   -0.657739    0.616186
      8          1           0        4.649690   -0.295764    1.526046
      9          6           0        6.495999   -0.716865    0.531393
     10          1           0        7.106338   -0.402891    1.373050
     11          7           0        7.163441   -1.147190   -0.547179
     12          6           0        6.427712   -1.536228   -1.591882
     13          1           0        6.978523   -1.883010   -2.461288
     14          6           0        5.036390   -1.513623   -1.606337
     15          1           0        4.498814   -1.842821   -2.488364
 ---------------------------------------------------------------------
                    Distance matrix (angstroms):
                    1          2          3          4          5
     1  H    0.000000
     2  C    1.082810   0.000000
     3  H    1.842668   1.083851   0.000000
     4  C    2.106023   1.334819   2.125485   0.000000
     5  H    2.408774   2.085286   3.071488   1.086768   0.000000
     6  C    3.479700   2.507710   2.811168   1.469794   2.162979
     7  C    4.130125   3.049440   2.820734   2.533002   3.455620
     8  H    3.856041   2.806201   2.211237   2.796479   3.855848
     9  C    5.510091   4.432207   4.179032   3.784248   4.570773
    10  H    6.204523   5.123926   4.667941   4.675738   5.546156
    11  N    6.261938   5.227847   5.196929   4.296428   4.830476
    12  C    5.848878   4.916660   5.164334   3.756484   4.014780
    13  H    6.738194   5.865230   6.195611   4.632358   4.702074
    14  C    4.585615   3.740210   4.188513   2.480575   2.626589
    15  H    4.680072   4.030230   4.702666   2.695555   2.380297
                    6          7          8          9         10
     6  C    0.000000
     7  C    1.401249   0.000000
     8  H    2.170126   1.082609   0.000000
     9  C    2.408070   1.388458   2.139046   0.000000
    10  H    3.395875   2.148858   2.463738   1.086038   0.000000
    11  N    2.827347   2.409123   3.367808   1.339395   2.060224
    12  C    2.413870   2.716615   3.797576   2.276909   3.245891
    13  H    3.401466   3.802407   4.882791   3.247902   4.112084
    14  C    1.399825   2.382807   3.382977   2.708352   3.794095
    15  H    2.160544   3.379038   4.304838   3.791498   4.876792
                   11         12         13         14         15
    11  N    0.000000
    12  C    1.335684   0.000000
    13  H    2.058990   1.086056   0.000000
    14  C    2.404254   1.391581   2.153897   0.000000
    15  H    3.369323   2.149030   2.480183   1.084127   0.000000
 Stoichiometry    C7H7N
 Framework group  C1[X(C7H7N)]
 Deg. of freedom    39
 Full point group                 C1      NOp   1
 Largest Abelian subgroup         C1      NOp   1
 Largest concise Abelian subgroup C1      NOp   1
                         Standard orientation:                         
 ---------------------------------------------------------------------
 Center     Atomic      Atomic             Coordinates (Angstroms)
 Number     Number       Type             X           Y           Z
 ---------------------------------------------------------------------
      1          1           0        3.979075   -0.004789   -0.004963
      2          6           0        2.950872    0.334679   -0.011012
      3          1           0        2.795331    1.407096   -0.032476
      4          6           0        1.942014   -0.539150    0.008308
      5          1           0        2.174945   -1.600490    0.027407
      6          6           0        0.506324   -0.224387    0.004632
      7          6           0       -0.006076    1.079814    0.006835
      8          1           0        0.649994    1.940961    0.013144
      9          6           0       -1.381330    1.270791    0.002556
     10          1           0       -1.790745    2.276701    0.004387
     11          7           0       -2.276626    0.274611   -0.004278
     12          6           0       -1.789749   -0.969174   -0.005588
     13          1           0       -2.523936   -1.769462   -0.010821
     14          6           0       -0.429981   -1.264973   -0.000082
     15          1           0       -0.100722   -2.297891   -0.000630
 ---------------------------------------------------------------------
 Rotational constants (GHZ):           5.4697516           1.5435141           1.2038441
 Standard basis: 6-311++G(d,p) (5D, 7F)
 There are   233 symmetry adapted cartesian basis functions of A   symmetry.
 There are   225 symmetry adapted basis functions of A   symmetry.
   225 basis functions,   351 primitive gaussians,   233 cartesian basis functions
    28 alpha electrons       28 beta electrons
       nuclear repulsion energy       323.0682016771 Hartrees.
 NAtoms=   15 NActive=   15 NUniq=   15 SFac= 1.00D+00 NAtFMM=   60 NAOKFM=F Big=F
 Integral buffers will be    131072 words long.
 Raffenetti 2 integral format.
 Two-electron integral symmetry is turned on.
 Nuclear repulsion after empirical dispersion term =      323.0423841165 Hartrees.
 One-electron integrals computed using PRISM.
 NBasis=   225 RedAO= T EigKep=  2.45D-06  NBF=   225
 NBsUse=   225 1.00D-06 EigRej= -1.00D+00 NBFU=   225
 Initial guess from the checkpoint file:  "4VP-1.chk"
 B after Tr=     0.000000    0.000000    0.000000
         Rot=    1.000000   -0.000012   -0.000005    0.000639 Ang=  -0.07 deg.
 ExpMin= 3.60D-02 ExpMax= 6.29D+03 ExpMxC= 9.49D+02 IAcc=3 IRadAn=         5 AccDes= 0.00D+00
 Harris functional with IExCor=  402 and IRadAn=       5 diagonalized for initial guess.
 HarFok:  IExCor=  402 AccDes= 0.00D+00 IRadAn=         5 IDoV= 1 UseB2=F ITyADJ=14
 ICtDFT=  3500011 ScaDFX=  1.000000  1.000000  1.000000  1.000000
 FoFCou: FMM=F IPFlag=           0 FMFlag=      100000 FMFlg1=           0
         NFxFlg=           0 DoJE=T BraDBF=F KetDBF=T FulRan=T
         wScrn=  0.000000 ICntrl=       500 IOpCl=  0 I1Cent=   200000004 NGrid=           0
         NMat0=    1 NMatS0=      1 NMatT0=    0 NMatD0=    1 NMtDS0=    0 NMtDT0=    0
 Petite list used in FoFCou.
 Requested convergence on RMS density matrix=1.00D-08 within 128 cycles.
 Requested convergence on MAX density matrix=1.00D-06.
 Requested convergence on             energy=1.00D-06.
 No special actions if energy rises.
 SCF Done:  E(RB3LYP) =  -325.797196864     A.U. after   10 cycles
            NFock= 10  Conv=0.99D-08     -V/T= 2.0045
 Calling FoFJK, ICntrl=      2127 FMM=F ISym2X=0 I1Cent= 0 IOpClX= 0 NMat=1 NMatS=1 NMatT=0.
 ***** Axes restored to original set *****
 -------------------------------------------------------------------
 Center     Atomic                   Forces (Hartrees/Bohr)
 Number     Number              X              Y              Z
[...]
 **** Fit       0.016211
 **** Fit       0.016215
 **** Fit       0.011211
 **** Fit       0.007988
 **** Fit       0.005917
 **** Fit       0.004565
 **** Fit       0.003664
 **** Fit       0.004550
 **** Fit       0.005781
 **** Fit       0.007590
 **** Fit       0.010259
 **** Fit       0.014133
 **** Fit       0.019396
 **** Fit       0.019400
 **** Fit       0.014136
 **** Fit       0.010261
 **** Fit       0.007592
 **** Fit       0.005782
 **** Fit       0.004550
 **** Fit       0.004584
 **** Fit       0.005687
 **** Fit       0.007217
 **** Fit       0.009317
 **** Fit       0.012101
 **** Fit       0.015504
 **** Fit       0.018977
 **** Fit       0.018979
 **** Fit       0.015506
 **** Fit       0.012103
 **** Fit       0.009319
 **** Fit       0.007219
 **** Fit       0.005688
 **** Fit       0.004584
 **** Fit       0.004661
 **** Fit       0.005651
 **** Fit       0.006941
 **** Fit       0.008584
 **** Fit       0.010572
 **** Fit       0.012763
 **** Fit       0.014780
 **** Fit       0.016037
 **** Fit       0.016037
 **** Fit       0.014781
 **** Fit       0.012764
 **** Fit       0.010573
 **** Fit       0.008585
 **** Fit       0.006942
 **** Fit       0.005652
 **** Fit       0.004661
 **** Fit       0.005663
 **** Fit       0.006770
 **** Fit       0.008090
 **** Fit       0.009571
 **** Fit       0.011075
 **** Fit       0.012354
 **** Fit       0.013106
 **** Fit       0.013106
 **** Fit       0.012355
 **** Fit       0.011076
 **** Fit       0.009572
 **** Fit       0.008091
 **** Fit       0.006771
 **** Fit       0.005664
 **** Fit       0.006670
 **** Fit       0.007771
 **** Fit       0.008940
 **** Fit       0.010061
 **** Fit       0.010968
 **** Fit       0.011481
 **** Fit       0.011481
 **** Fit       0.010968
 **** Fit       0.010062
 **** Fit       0.008941
 **** Fit       0.007772
 **** Fit       0.006671
 **** Fit       0.007539
 **** Fit       0.008506
 **** Fit       0.009399
 **** Fit       0.010099
 **** Fit       0.010487
 **** Fit       0.010487
 **** Fit       0.010100
 **** Fit       0.009400
 **** Fit       0.008506
 **** Fit       0.007540
 **** Fit       0.008144
 **** Fit       0.008883
 **** Fit       0.009450
 **** Fit       0.009760
 **** Fit       0.009760
 **** Fit       0.009451
 **** Fit       0.008884
 **** Fit       0.008145
 **** Fit       0.008405
 **** Fit       0.008873
 **** Fit       0.009126
 **** Fit       0.009126
 **** Fit       0.008873
 **** Fit       0.008405
 **** Fit       0.008516
 **** Fit       0.008516
 **** Fit       0.009277
 **** Fit       0.009277
 **** Fit       0.008518
 **** Fit       0.009341
 **** Fit       0.009976
 **** Fit       0.010325
 **** Fit       0.010325
 **** Fit       0.009976
 **** Fit       0.009340
 **** Fit       0.008518
 **** Fit       0.008126
 **** Fit       0.009275
 **** Fit       0.010359
 **** Fit       0.011222
 **** Fit       0.011705
 **** Fit       0.011705
 **** Fit       0.011222
 **** Fit       0.010359
 **** Fit       0.009275
 **** Fit       0.008126
 **** Fit       0.007360
 **** Fit       0.008716
 **** Fit       0.010199
 **** Fit       0.011663
 **** Fit       0.012875
 **** Fit       0.013572
 **** Fit       0.013572
 **** Fit       0.012875
 **** Fit       0.011663
 **** Fit       0.010200
 **** Fit       0.008716
 **** Fit       0.007360
 **** Fit       0.006344
 **** Fit       0.007708
 **** Fit       0.009377
 **** Fit       0.011304
 **** Fit       0.013311
 **** Fit       0.015055
 **** Fit       0.016093
 **** Fit       0.016093
 **** Fit       0.015055
 **** Fit       0.013311
 **** Fit       0.011304
 **** Fit       0.009378
 **** Fit       0.007708
 **** Fit       0.006344
 **** Fit       0.006466
 **** Fit       0.008038
 **** Fit       0.010060
 **** Fit       0.012529
 **** Fit       0.015260
 **** Fit       0.017770
 **** Fit       0.019327
 **** Fit       0.019327
 **** Fit       0.017771
 **** Fit       0.015261
 **** Fit       0.012530
 **** Fit       0.010060
 **** Fit       0.008038
 **** Fit       0.006466
 **** Fit       0.005260
 **** Fit       0.006543
 **** Fit       0.008295
 **** Fit       0.010650
 **** Fit       0.013682
 **** Fit       0.017237
 **** Fit       0.020695
 **** Fit       0.022930
 **** Fit       0.022931
 **** Fit       0.020696
 **** Fit       0.017239
 **** Fit       0.013684
 **** Fit       0.010652
 **** Fit       0.008296
 **** Fit       0.006543
 **** Fit       0.005261
 **** Fit       0.005223
 **** Fit       0.006552
 **** Fit       0.008411
 **** Fit       0.010988
 **** Fit       0.014433
 **** Fit       0.018657
 **** Fit       0.022950
 **** Fit       0.022952
 **** Fit       0.018659
 **** Fit       0.014435
 **** Fit       0.010989
 **** Fit       0.008412
 **** Fit       0.006553
 **** Fit       0.005223
 **** Fit       0.005165
 **** Fit       0.006483
 **** Fit       0.008339
 **** Fit       0.010936
 **** Fit       0.014457
 **** Fit       0.018848
 **** Fit       0.023393
 **** Fit       0.023395
 **** Fit       0.018851
 **** Fit       0.014459
 **** Fit       0.010938
 **** Fit       0.008341
 **** Fit       0.006484
 **** Fit       0.005165
 **** Fit       0.005095
 **** Fit       0.006348
 **** Fit       0.008089
 **** Fit       0.010488
 **** Fit       0.013688
 **** Fit       0.017614
 **** Fit       0.021617
 **** Fit       0.021619
 **** Fit       0.017616
 **** Fit       0.013690
 **** Fit       0.010490
 **** Fit       0.008090
 **** Fit       0.006349
 **** Fit       0.005096
 **** Fit       0.005029
 **** Fit       0.006178
 **** Fit       0.007727
 **** Fit       0.009785
 **** Fit       0.012414
 **** Fit       0.015492
 **** Fit       0.018492
 **** Fit       0.020440
 **** Fit       0.020441
 **** Fit       0.018494
 **** Fit       0.015493
 **** Fit       0.012416
 **** Fit       0.009786
 **** Fit       0.007728
 **** Fit       0.006179
 **** Fit       0.005030
 **** Fit       0.004979
 **** Fit       0.006011
 **** Fit       0.007344
 **** Fit       0.009028
 **** Fit       0.011055
 **** Fit       0.013280
 **** Fit       0.015320
 **** Fit       0.016585
 **** Fit       0.016586
 **** Fit       0.015321
 **** Fit       0.013281
 **** Fit       0.011057
 **** Fit       0.009029
 **** Fit       0.007345
 **** Fit       0.006012
 **** Fit       0.004980
 **** Fit       0.005871
 **** Fit       0.007006
 **** Fit       0.008363
 **** Fit       0.009899
 **** Fit       0.011474
 **** Fit       0.012831
 **** Fit       0.013635
 **** Fit       0.013635
 **** Fit       0.012832
 **** Fit       0.011475
 **** Fit       0.009900
 **** Fit       0.008364
 **** Fit       0.007007
 **** Fit       0.005872
 **** Fit       0.006737
 **** Fit       0.007843
 **** Fit       0.009026
 **** Fit       0.010173
 **** Fit       0.011109
 **** Fit       0.011644
 **** Fit       0.011644
 **** Fit       0.011110
 **** Fit       0.010173
 **** Fit       0.009027
 **** Fit       0.007843
 **** Fit       0.006737
 **** Fit       0.007449
 **** Fit       0.008393
 **** Fit       0.009269
 **** Fit       0.009957
 **** Fit       0.010339
 **** Fit       0.010340
 **** Fit       0.009958
 **** Fit       0.009269
 **** Fit       0.008394
 **** Fit       0.007450
 **** Fit       0.007916
 **** Fit       0.008617
 **** Fit       0.009154
 **** Fit       0.009446
 **** Fit       0.009446
 **** Fit       0.009154
 **** Fit       0.008618
 **** Fit       0.007917
 **** Fit       0.008770
 **** Fit       0.008770
 **** Fit       0.009058
 **** Fit       0.009327
 **** Fit       0.009327
 **** Fit       0.009059
 **** Fit       0.008563
 **** Fit       0.009397
 **** Fit       0.010045
 **** Fit       0.010401
 **** Fit       0.010401
 **** Fit       0.010045
 **** Fit       0.009398
 **** Fit       0.008564
 **** Fit       0.008173
 **** Fit       0.009315
 **** Fit       0.010394
 **** Fit       0.011255
 **** Fit       0.011738
 **** Fit       0.011738
 **** Fit       0.011255
 **** Fit       0.010394
 **** Fit       0.009315
 **** Fit       0.008174
 **** Fit       0.007417
 **** Fit       0.008726
 **** Fit       0.010148
 **** Fit       0.011545
 **** Fit       0.012696
 **** Fit       0.013357
 **** Fit       0.013357
 **** Fit       0.012697
 **** Fit       0.011545
 **** Fit       0.010149
 **** Fit       0.008726
 **** Fit       0.007417
 **** Fit       0.006438
 **** Fit       0.007722
 **** Fit       0.009260
 **** Fit       0.010998
 **** Fit       0.012771
 **** Fit       0.014285
 **** Fit       0.015175
 **** Fit       0.015175
 **** Fit       0.014286
 **** Fit       0.012772
 **** Fit       0.010999
 **** Fit       0.009261
 **** Fit       0.007722
 **** Fit       0.006438
 **** Fit       0.006542
 **** Fit       0.007952
 **** Fit       0.009694
 **** Fit       0.011731
 **** Fit       0.013883
 **** Fit       0.015781
 **** Fit       0.016922
 **** Fit       0.016922
 **** Fit       0.015781
 **** Fit       0.013884
 **** Fit       0.011732
 **** Fit       0.009695
 **** Fit       0.007953
 **** Fit       0.006542
 **** Fit       0.006576
 **** Fit       0.008059
 **** Fit       0.009929
 **** Fit       0.012166
 **** Fit       0.014591
 **** Fit       0.016781
 **** Fit       0.018121
 **** Fit       0.018121
 **** Fit       0.016781
 **** Fit       0.014592
 **** Fit       0.012167
 **** Fit       0.009930
 **** Fit       0.008060
 **** Fit       0.006576
 **** Fit       0.006530
 **** Fit       0.008013
 **** Fit       0.009891
 **** Fit       0.012155
 **** Fit       0.014632
 **** Fit       0.016888
 **** Fit       0.018279
 **** Fit       0.018279
 **** Fit       0.016889
 **** Fit       0.014633
 **** Fit       0.012157
 **** Fit       0.009892
 **** Fit       0.008013
 **** Fit       0.006531
 **** Fit       0.006412
 **** Fit       0.007818
 **** Fit       0.009580
 **** Fit       0.011681
 **** Fit       0.013955
 **** Fit       0.016008
 **** Fit       0.017265
 **** Fit       0.017265
 **** Fit       0.016008
 **** Fit       0.013956
 **** Fit       0.011682
 **** Fit       0.009581
 **** Fit       0.007819
 **** Fit       0.006413
 **** Fit       0.006245
 **** Fit       0.007519
 **** Fit       0.009076
 **** Fit       0.010882
 **** Fit       0.012782
 **** Fit       0.014454
 **** Fit       0.015460
 **** Fit       0.015460
 **** Fit       0.014455
 **** Fit       0.012783
 **** Fit       0.010883
 **** Fit       0.009077
 **** Fit       0.007520
 **** Fit       0.006246
 **** Fit       0.006060
 **** Fit       0.007177
 **** Fit       0.008497
 **** Fit       0.009969
 **** Fit       0.011459
 **** Fit       0.012723
 **** Fit       0.013465
 **** Fit       0.013465
 **** Fit       0.012724
 **** Fit       0.011460
 **** Fit       0.009970
 **** Fit       0.008498
 **** Fit       0.007178
 **** Fit       0.006060
 **** Fit       0.006845
 **** Fit       0.007942
 **** Fit       0.009115
 **** Fit       0.010252
 **** Fit       0.011181
 **** Fit       0.011711
 **** Fit       0.011711
 **** Fit       0.011181
 **** Fit       0.010252
 **** Fit       0.009116
 **** Fit       0.007943
 **** Fit       0.006846
 **** Fit       0.006550
 **** Fit       0.007462
 **** Fit       0.008398
 **** Fit       0.009271
 **** Fit       0.009959
 **** Fit       0.010343
 **** Fit       0.010343
 **** Fit       0.009959
 **** Fit       0.009271
 **** Fit       0.008399
 **** Fit       0.007462
 **** Fit       0.006551
 **** Fit       0.007824
 **** Fit       0.008510
 **** Fit       0.009037
 **** Fit       0.009325
 **** Fit       0.009325
 **** Fit       0.009037
 **** Fit       0.008510
 **** Fit       0.007824
 **** Fit       0.007915
 **** Fit       0.008333
 **** Fit       0.008558
 **** Fit       0.008558
 **** Fit       0.008333
 **** Fit       0.007915
 **** Fit       0.008480
 **** Fit       0.008964
 **** Fit       0.009226
 **** Fit       0.009226
 **** Fit       0.008964
 **** Fit       0.008480
 **** Fit       0.008433
 **** Fit       0.009227
 **** Fit       0.009841
 **** Fit       0.010179
 **** Fit       0.010179
 **** Fit       0.009841
 **** Fit       0.009227
 **** Fit       0.008434
 **** Fit       0.008005
 **** Fit       0.009051
 **** Fit       0.010031
 **** Fit       0.010806
 **** Fit       0.011238
 **** Fit       0.011238
 **** Fit       0.010806
 **** Fit       0.010031
 **** Fit       0.009052
 **** Fit       0.008005
 **** Fit       0.007253
 **** Fit       0.008412
 **** Fit       0.009642
 **** Fit       0.010823
 **** Fit       0.011778
 **** Fit       0.012319
 **** Fit       0.012320
 **** Fit       0.011779
 **** Fit       0.010823
 **** Fit       0.009642
 **** Fit       0.008412
 **** Fit       0.007253
 **** Fit       0.007444
 **** Fit       0.008727
 **** Fit       0.010119
 **** Fit       0.011486
 **** Fit       0.012613
 **** Fit       0.013260
 **** Fit       0.013260
 **** Fit       0.012613
 **** Fit       0.011486
 **** Fit       0.010120
 **** Fit       0.008727
 **** Fit       0.007445
 **** Fit       0.007535
 **** Fit       0.008891
 **** Fit       0.010386
 **** Fit       0.011875
 **** Fit       0.013120
 **** Fit       0.013841
 **** Fit       0.013841
 **** Fit       0.013120
 **** Fit       0.011876
 **** Fit       0.010387
 **** Fit       0.008892
 **** Fit       0.007535
 **** Fit       0.006345
 **** Fit       0.007504
 **** Fit       0.008865
 **** Fit       0.010371
 **** Fit       0.011877
 **** Fit       0.013143
 **** Fit       0.013878
 **** Fit       0.013878
 **** Fit       0.013143
 **** Fit       0.011878
 **** Fit       0.010372
 **** Fit       0.008866
 **** Fit       0.007505
 **** Fit       0.006345
 **** Fit       0.007357
 **** Fit       0.008650
 **** Fit       0.010069
 **** Fit       0.011480
 **** Fit       0.012657
 **** Fit       0.013339
 **** Fit       0.013339
 **** Fit       0.012658
 **** Fit       0.011480
 **** Fit       0.010070
 **** Fit       0.008651
 **** Fit       0.007358
 **** Fit       0.007121
 **** Fit       0.008291
 **** Fit       0.009552
 **** Fit       0.010784
 **** Fit       0.011796
 **** Fit       0.012377
 **** Fit       0.012377
 **** Fit       0.011797
 **** Fit       0.010784
 **** Fit       0.009553
 **** Fit       0.008292
 **** Fit       0.007122
 **** Fit       0.006837
 **** Fit       0.007858
 **** Fit       0.008930
 **** Fit       0.009952
 **** Fit       0.010774
 **** Fit       0.011239
 **** Fit       0.011239
 **** Fit       0.010775
 **** Fit       0.009952
 **** Fit       0.008931
 **** Fit       0.007858
 **** Fit       0.006837
 **** Fit       0.007414
 **** Fit       0.008304
 **** Fit       0.009129
 **** Fit       0.009777
 **** Fit       0.010137
 **** Fit       0.010137
 **** Fit       0.009777
 **** Fit       0.009129
 **** Fit       0.008305
 **** Fit       0.007414
 **** Fit       0.007736
 **** Fit       0.008398
 **** Fit       0.008906
 **** Fit       0.009184
 **** Fit       0.009184
 **** Fit       0.008906
 **** Fit       0.008398
 **** Fit       0.007736
 **** Fit       0.007781
 **** Fit       0.008184
 **** Fit       0.008402
 **** Fit       0.008402
 **** Fit       0.008185
 **** Fit       0.007781
 **** Fit       0.008641
 **** Fit       0.008880
 **** Fit       0.008881
 **** Fit       0.008641
 **** Fit       0.008765
 **** Fit       0.009300
 **** Fit       0.009592
 **** Fit       0.009592
 **** Fit       0.009300
 **** Fit       0.008765
 **** Fit       0.008484
 **** Fit       0.009293
 **** Fit       0.009922
 **** Fit       0.010269
 **** Fit       0.010269
 **** Fit       0.009922
 **** Fit       0.009293
 **** Fit       0.008484
 **** Fit       0.007831
 **** Fit       0.008805
 **** Fit       0.009710
 **** Fit       0.010423
 **** Fit       0.010819
 **** Fit       0.010819
 **** Fit       0.010423
 **** Fit       0.009710
 **** Fit       0.008805
 **** Fit       0.007832
 **** Fit       0.007948
 **** Fit       0.008977
 **** Fit       0.009941
 **** Fit       0.010707
 **** Fit       0.011135
 **** Fit       0.011136
 **** Fit       0.010708
 **** Fit       0.009942
 **** Fit       0.008977
 **** Fit       0.007949
 **** Fit       0.007930
 **** Fit       0.008964
 **** Fit       0.009935
 **** Fit       0.010709
 **** Fit       0.011141
 **** Fit       0.011142
 **** Fit       0.010709
 **** Fit       0.009936
 **** Fit       0.008964
 **** Fit       0.007931
 **** Fit       0.007780
 **** Fit       0.008765
 **** Fit       0.009688
 **** Fit       0.010420
 **** Fit       0.010828
 **** Fit       0.010828
 **** Fit       0.010420
 **** Fit       0.009689
 **** Fit       0.008766
 **** Fit       0.007780
 **** Fit       0.007522
 **** Fit       0.008420
 **** Fit       0.009251
 **** Fit       0.009903
 **** Fit       0.010265
 **** Fit       0.010265
 **** Fit       0.009903
 **** Fit       0.009251
 **** Fit       0.008420
 **** Fit       0.007523
 **** Fit       0.007987
 **** Fit       0.008705
 **** Fit       0.009261
 **** Fit       0.009567
 **** Fit       0.009567
 **** Fit       0.009261
 **** Fit       0.008705
 **** Fit       0.007988
 **** Fit       0.007528
 **** Fit       0.008132
 **** Fit       0.008593
 **** Fit       0.008843
 **** Fit       0.008843
 **** Fit       0.008593
 **** Fit       0.008132
 **** Fit       0.007528
 **** Fit       0.007964
 **** Fit       0.008168
 **** Fit       0.008168
 **** Fit       0.007965
 **** Fit       0.008509
 **** Fit       0.008742
 **** Fit       0.008742
 **** Fit       0.008509
 **** Fit       0.008354
 **** Fit       0.008828
 **** Fit       0.009085
 **** Fit       0.009085
 **** Fit       0.008828
 **** Fit       0.008354
 **** Fit       0.008501
 **** Fit       0.009001
 **** Fit       0.009274
 **** Fit       0.009274
 **** Fit       0.009001
 **** Fit       0.008501
 **** Fit       0.008494
 **** Fit       0.008997
 **** Fit       0.009272
 **** Fit       0.009272
 **** Fit       0.008997
 **** Fit       0.008494
 **** Fit       0.008333
 **** Fit       0.008815
 **** Fit       0.009077
 **** Fit       0.009077
 **** Fit       0.008815
 **** Fit       0.008333
 **** Fit       0.008045
 **** Fit       0.008485
 **** Fit       0.008725
 **** Fit       0.008725
 **** Fit       0.008486
 **** Fit       0.008045
 **** Fit       0.008062
 **** Fit       0.008271
 **** Fit       0.008271
 **** Fit       0.008062
 -----------------------------------------------------------------
 Leave Link  602 at Thu Apr 21 16:32:36 2022, MaxMem=   104857600 cpu:               0.8 elap:               0.8
 (Enter /opt/ohpc/pub/libs/gaussian/g16-A.03/haswell/g16/l9999.exe)

 Test job not archived.
 1\1\GINC-CASCADEB027\SP\RB3LYP\6-311++G(d,p)\C7H7N1\MNG228\21-Apr-2022
 \0\\#P B3LYP/6-311++G(d,p) Geom=Allcheck SCF=Tight EmpiricalDispersion
 =GD3BJ Pop=CHELPG SP IOp(6/33=2)\\4VP geo opt\\0,1\H,0,0.988884458,-0.
 6885597999,0.3857224959\C,0,2.0655287102,-0.662442513,0.4991656028\H,0
 ,2.4432952811,-0.3058209707,1.4505206861\C,0,2.868571159,-1.0534720154
 ,-0.4931650444\H,0,2.4182987316,-1.3996567315,-1.4199917189\C,0,4.3377
 19422,-1.0710875052,-0.4781112343\C,0,5.110684895,-0.6653560867,0.6187
 064307\H,0,4.647651754,-0.3104274118,1.5307905013\C,0,6.4952200902,-0.
 7199710998,0.5330433766\H,0,7.1045588802,-0.4082290521,1.376250545\N,0
 ,7.1629938512,-1.1426900454,-0.5483261625\C,0,6.4284262536,-1.52941540
 91,-1.5936468042\H,0,6.9783352364,-1.8706490249,-2.4659447218\C,0,5.03
 64699648,-1.5125635454,-1.6074313515\H,0,4.4995613127,-1.8405587891,-2
 .4904826009\\Version=ES64L-G16RevA.03\State=1-A\HF=-325.7971997\RMSD=2
 .725e-09\Dipole=-1.0248327,0.0334408,0.0450796\Quadrupole=-2.6957134,-
 1.805192,4.5009054,0.1172567,0.3150138,2.8053648\PG=C01 [X(C7H7N1)]\\@


 CHINESE FORTUNE COOKIE OF JAN 1 1967 SAY....
 ALL THINGS ARE DIFFICULT BEFORE THEY ARE EASY.
 WE LEARN SO LITTLE AND FORGET SO MUCH.
 YOU WILL OVERCOME OBSTACLES TO ACHIEVE SUCCESS.
 AH SO.
 Job cpu time:       0 days  0 hours  1 minutes 32.6 seconds.
 Elapsed time:       0 days  0 hours  1 minutes 33.6 seconds.
 File lengths (MBytes):  RWF=    272 Int=      0 D2E=      0 Chk=     32 Scr=     32
 Normal termination of Gaussian 16 at Thu Apr 21 16:32:36 2022.
