 Entering Gaussian System, Link 0=g16
 Initial command:
 /opt/ohpc/pub/libs/gaussian/g16-A.03/haswell/g16/l1.exe "g16_scratch/Gau-375382.inp" -scrdir="g16_scratch/"
 Entering Link 1 = /opt/ohpc/pub/libs/gaussian/g16-A.03/haswell/g16/l1.exe PID=    375383.
  
 Copyright (c) 1988,1990,1992,1993,1995,1998,2003,2009,2016,
            Gaussian, Inc.  All Rights Reserved.
  
 This is part of the Gaussian(R) 16 program.  It is based on
 the Gaussian(R) 09 system (copyright 2009, Gaussian, Inc.),
 the Gaussian(R) 03 system (copyright 2003, Gaussian, Inc.),
 the Gaussian(R) 98 system (copyright 1998, Gaussian, Inc.),
 the Gaussian(R) 94 system (copyright 1995, Gaussian, Inc.),
 the Gaussian 92(TM) system (copyright 1992, Gaussian, Inc.),
 the Gaussian 90(TM) system (copyright 1990, Gaussian, Inc.),
 the Gaussian 88(TM) system (copyright 1988, Gaussian, Inc.),
 the Gaussian 86(TM) system (copyright 1986, Carnegie Mellon
 University), and the Gaussian 82(TM) system (copyright 1983,
 Carnegie Mellon University). Gaussian is a federally registered
 trademark of Gaussian, Inc.
  
 This software contains proprietary and confidential information,
 including trade secrets, belonging to Gaussian, Inc.
  
 This software is provided under written license and may be
 used, copied, transmitted, or stored only in accord with that
 written license.
  
 The following legend is applicable only to US Government
 contracts under FAR:
  
                    RESTRICTED RIGHTS LEGEND
  
 Use, reproduction and disclosure by the US Government is
 subject to restrictions as set forth in subparagraphs (a)
 and (c) of the Commercial Computer Software - Restricted
 Rights clause in FAR 52.227-19.
  
 Gaussian, Inc.
 340 Quinnipiac St., Bldg. 40, Wallingford CT 06492
  
  
 ---------------------------------------------------------------
 Warning -- This program may not be used in any manner that
 competes with the business of Gaussian, Inc. or will provide
 assistance to any competitor of Gaussian, Inc.  The licensee
 of this program is prohibited from giving any competitor of
 Gaussian, Inc. access to this program.  By using this program,
 the user acknowledges that Gaussian, Inc. is engaged in the
 business of creating and licensing software in the field of
 computational chemistry and represents and warrants to the
 licensee that it is not a competitor of Gaussian, Inc. and that
 it will not use this program in any manner prohibited above.
 ---------------------------------------------------------------
  

 Cite this work as:
 Gaussian 16, Revision A.03,
 M. J. Frisch, G. W. Trucks, H. B. Schlegel, G. E. Scuseria, 
 M. A. Robb, J. R. Cheeseman, G. Scalmani, V. Barone, 
 G. A. Petersson, H. Nakatsuji, X. Li, M. Caricato, A. V. Marenich, 
 J. Bloino, B. G. Janesko, R. Gomperts, B. Mennucci, H. P. Hratchian, 
 J. V. Ortiz, A. F. Izmaylov, J. L. Sonnenberg, D. Williams-Young, 
 F. Ding, F. Lipparini, F. Egidi, J. Goings, B. Peng, A. Petrone, 
 T. Henderson, D. Ranasinghe, V. G. Zakrzewski, J. Gao, N. Rega, 
 G. Zheng, W. Liang, M. Hada, M. Ehara, K. Toyota, R. Fukuda, 
 J. Hasegawa, M. Ishida, T. Nakajima, Y. Honda, O. Kitao, H. Nakai, 
 T. Vreven, K. Throssell, J. A. Montgomery, Jr., J. E. Peralta, 
 F. Ogliaro, M. J. Bearpark, J. J. Heyd, E. N. Brothers, K. N. Kudin, 
 V. N. Staroverov, T. A. Keith, R. Kobayashi, J. Normand, 
 K. Raghavachari, A. P. Rendell, J. C. Burant, S. S. Iyengar, 
 J. Tomasi, M. Cossi, J. M. Millam, M. Klene, C. Adamo, R. Cammi, 
 J. W. Ochterski, R. L. Martin, K. Morokuma, O. Farkas, 
 J. B. Foresman, and D. J. Fox, Gaussian, Inc., Wallingford CT, 2016.
 
 ******************************************
 Gaussian 16:  ES64L-G16RevA.03 25-Dec-2016
                21-Apr-2022 
 ******************************************
 %Mem=192GB
 %NProcShared=48
 Will use up to   48 processors via shared memory.
 %Chk=4VP-2.chk
 ---------------------------------------------------------------------
 #n B3LYP/6-311++G(d,p) Opt freq EmpiricalDispersion=GD3BJ IOp(6/33=2)
 ---------------------------------------------------------------------
 1/18=20,19=15,26=3,38=1/1,3;
 2/9=110,12=2,17=6,18=5,40=1/2;
 3/5=4,6=6,7=1111,11=2,25=1,30=1,71=1,74=-5,124=41/1,2,3;
 4//1;
 5/5=2,38=5/2;
 6/7=2,8=2,9=2,10=2,28=1,33=2/1;
 7//1,2,3,16;
 1/18=20,19=15,26=3/3(2);
 2/9=110/2;
 99//99;
 2/9=110/2;
 3/5=4,6=6,7=1111,11=2,25=1,30=1,71=1,74=-5,124=41/1,2,3;
 4/5=5,16=3,69=1/1;
 5/5=2,38=5/2;
 7//1,2,3,16;
 1/18=20,19=15,26=3/3(-5);
 2/9=110/2;
 6/7=2,8=2,9=2,10=2,19=2,28=1,33=2/1;
 99/9=1/99;
 -----------
 4VP geo opt
 -----------
 Symbolic Z-matrix:
 Charge =  0 Multiplicity = 1
 H                     1.0328   -0.0954   -0.8876 
 C                     2.1156   -0.016    -0.897 
 H                     2.5355    0.9224   -1.2435 
 C                     2.8728   -1.0522   -0.514 
 H                     2.3866   -1.975    -0.2048 
 C                     4.3425   -1.0539   -0.501 
 C                     5.0849   -0.6528    0.6116 
 H                     4.6089   -0.3112    1.5236 
 C                     6.4682   -0.7079    0.5444 
 H                     7.0797   -0.4004    1.3877 
 N                     7.1524   -1.1389   -0.5351 
 C                     6.4172   -1.5386   -1.5935 
 H                     6.9891   -1.8868   -2.4487 
 C                     5.0311   -1.5213   -1.6217 
 H                     4.5081   -1.8588   -2.5105 
 

 GradGradGradGradGradGradGradGradGradGradGradGradGradGradGradGradGradGrad
 Berny optimization.
 Initialization pass.
                           ----------------------------
                           !    Initial Parameters    !
                           ! (Angstroms and Degrees)  !
 --------------------------                            --------------------------
 ! Name  Definition              Value          Derivative Info.                !
 --------------------------------------------------------------------------------
 ! R1    R(1,2)                  1.0857         estimate D2E/DX2                !
 ! R2    R(2,3)                  1.0849         estimate D2E/DX2                !
 ! R3    R(2,4)                  1.3393         estimate D2E/DX2                !
 ! R4    R(4,5)                  1.0879         estimate D2E/DX2                !
 ! R5    R(4,6)                  1.4698         estimate D2E/DX2                !
 ! R6    R(6,7)                  1.3964         estimate D2E/DX2                !
 ! R7    R(6,14)                 1.3959         estimate D2E/DX2                !
 ! R8    R(7,8)                  1.084          estimate D2E/DX2                !
 ! R9    R(7,9)                  1.386          estimate D2E/DX2                !
 ! R10   R(9,10)                 1.0861         estimate D2E/DX2                !
 ! R11   R(9,11)                 1.3488         estimate D2E/DX2                !
 ! R12   R(11,12)                1.3493         estimate D2E/DX2                !
 ! R13   R(12,13)                1.0861         estimate D2E/DX2                !
 ! R14   R(12,14)                1.3865         estimate D2E/DX2                !
 ! R15   R(14,15)                1.0851         estimate D2E/DX2                !
 ! A1    A(1,2,3)              116.8731         estimate D2E/DX2                !
 ! A2    A(1,2,4)              120.3165         estimate D2E/DX2                !
 ! A3    A(3,2,4)              122.8015         estimate D2E/DX2                !
 ! A4    A(2,4,5)              119.0038         estimate D2E/DX2                !
 ! A5    A(2,4,6)              124.6643         estimate D2E/DX2                !
 ! A6    A(5,4,6)              116.3209         estimate D2E/DX2                !
 ! A7    A(4,6,7)              122.5713         estimate D2E/DX2                !
 ! A8    A(4,6,14)             119.1147         estimate D2E/DX2                !
 ! A9    A(7,6,14)             118.2675         estimate D2E/DX2                !
 ! A10   A(6,7,8)              121.8308         estimate D2E/DX2                !
 ! A11   A(6,7,9)              118.722          estimate D2E/DX2                !
 ! A12   A(8,7,9)              119.4444         estimate D2E/DX2                !
 ! A13   A(7,9,10)             120.8645         estimate D2E/DX2                !
 ! A14   A(7,9,11)             123.9026         estimate D2E/DX2                !
 ! A15   A(10,9,11)            115.2324         estimate D2E/DX2                !
 ! A16   A(9,11,12)            116.4921         estimate D2E/DX2                !
 ! A17   A(11,12,13)           115.1954         estimate D2E/DX2                !
 ! A18   A(11,12,14)           123.8483         estimate D2E/DX2                !
 ! A19   A(13,12,14)           120.9563         estimate D2E/DX2                !
 ! A20   A(6,14,12)            118.7509         estimate D2E/DX2                !
 ! A21   A(6,14,15)            121.6005         estimate D2E/DX2                !
 ! A22   A(12,14,15)           119.6456         estimate D2E/DX2                !
 ! D1    D(1,2,4,5)              0.6574         estimate D2E/DX2                !
 ! D2    D(1,2,4,6)            179.4061         estimate D2E/DX2                !
 ! D3    D(3,2,4,5)           -178.2194         estimate D2E/DX2                !
 ! D4    D(3,2,4,6)              0.5293         estimate D2E/DX2                !
 ! D5    D(2,4,6,7)             90.0001         estimate D2E/DX2                !
 ! D6    D(2,4,6,14)           -92.522          estimate D2E/DX2                !
 ! D7    D(5,4,6,7)            -91.2208         estimate D2E/DX2                !
 ! D8    D(5,4,6,14)            86.2571         estimate D2E/DX2                !
 ! D9    D(4,6,7,8)             -0.4723         estimate D2E/DX2                !
 ! D10   D(4,6,7,9)            178.9087         estimate D2E/DX2                !
 ! D11   D(14,6,7,8)          -177.9705         estimate D2E/DX2                !
 ! D12   D(14,6,7,9)             1.4105         estimate D2E/DX2                !
 ! D13   D(4,6,14,12)         -179.0289         estimate D2E/DX2                !
 ! D14   D(4,6,14,15)            1.6058         estimate D2E/DX2                !
 ! D15   D(7,6,14,12)           -1.4421         estimate D2E/DX2                !
 ! D16   D(7,6,14,15)          179.1926         estimate D2E/DX2                !
 ! D17   D(6,7,9,10)           179.7388         estimate D2E/DX2                !
 ! D18   D(6,7,9,11)            -0.5496         estimate D2E/DX2                !
 ! D19   D(8,7,9,10)            -0.8651         estimate D2E/DX2                !
 ! D20   D(8,7,9,11)           178.8465         estimate D2E/DX2                !
 ! D21   D(7,9,11,12)           -0.2997         estimate D2E/DX2                !
 ! D22   D(10,9,11,12)         179.4267         estimate D2E/DX2                !
 ! D23   D(9,11,12,13)        -179.6595         estimate D2E/DX2                !
 ! D24   D(9,11,12,14)           0.2651         estimate D2E/DX2                !
 ! D25   D(11,12,14,6)           0.6174         estimate D2E/DX2                !
 ! D26   D(11,12,14,15)        179.9954         estimate D2E/DX2                !
 ! D27   D(13,12,14,6)        -179.4622         estimate D2E/DX2                !
 ! D28   D(13,12,14,15)         -0.0842         estimate D2E/DX2                !
 --------------------------------------------------------------------------------
 Trust Radius=3.00D-01 FncErr=1.00D-07 GrdErr=1.00D-06 EigMax=2.50D+02 EigMin=1.00D-04
 Number of steps in this run=     75 maximum allowed number of steps=    100.
 GradGradGradGradGradGradGradGradGradGradGradGradGradGradGradGradGradGrad

                          Input orientation:                          
 ---------------------------------------------------------------------
 Center     Atomic      Atomic             Coordinates (Angstroms)
 Number     Number       Type             X           Y           Z
 ---------------------------------------------------------------------
      1          1           0        1.032800   -0.095400   -0.887600
      2          6           0        2.115600   -0.016000   -0.897000
      3          1           0        2.535500    0.922400   -1.243500
      4          6           0        2.872800   -1.052200   -0.514000
      5          1           0        2.386600   -1.975000   -0.204800
      6          6           0        4.342500   -1.053900   -0.501000
      7          6           0        5.084900   -0.652800    0.611600
      8          1           0        4.608900   -0.311200    1.523600
      9          6           0        6.468200   -0.707900    0.544400
     10          1           0        7.079700   -0.400400    1.387700
     11          7           0        7.152400   -1.138900   -0.535100
     12          6           0        6.417200   -1.538600   -1.593500
     13          1           0        6.989100   -1.886800   -2.448700
     14          6           0        5.031100   -1.521300   -1.621700
     15          1           0        4.508100   -1.858800   -2.510500
 ---------------------------------------------------------------------
                    Distance matrix (angstroms):
                    1          2          3          4          5
     1  H    0.000000
     2  C    1.085748   0.000000
     3  H    1.849510   1.084884   0.000000
     4  C    2.107283   1.339310   2.131897   0.000000
     5  H    2.414930   2.095295   3.081557   1.087913   0.000000
     6  C    3.467318   2.488601   2.778906   1.469758   2.182133
     7  C    4.356353   3.390889   3.524499   2.513938   3.113767
     8  H    4.318443   3.487548   3.671185   2.777578   3.270201
     9  C    5.654145   4.636970   4.617423   3.763729   4.338929
    10  H    6.467999   5.478130   5.415050   4.662544   5.200059
    11  N    6.217930   5.173126   5.105541   4.280530   4.849846
    12  C    5.618975   4.615971   4.609405   3.736934   4.285402
    13  H    6.412773   5.445977   5.401728   4.624235   5.121120
    14  C    4.307957   3.360247   3.513221   2.470893   3.034276
    15  H    4.221504   3.423938   3.637515   2.703853   3.135366
                    6          7          8          9         10
     6  C    0.000000
     7  C    1.396395   0.000000
     8  H    2.172919   1.083979   0.000000
     9  C    2.393988   1.386027   2.138504   0.000000
    10  H    3.389176   2.155287   2.476142   1.086114   0.000000
    11  N    2.811392   2.413663   3.375311   1.348781   2.061026
    12  C    2.394341   2.724359   3.806937   2.294184   3.259135
    13  H    3.389948   3.809747   4.891527   3.258802   4.115283
    14  C    1.395923   2.396834   3.396396   2.723759   3.809156
    15  H    2.171031   3.396269   4.321943   3.807752   4.892445
                   11         12         13         14         15
    11  N    0.000000
    12  C    1.349255   0.000000
    13  H    2.061040   1.086131   0.000000
    14  C    2.413885   1.386495   2.156683   0.000000
    15  H    3.378281   2.141980   2.481928   1.085081   0.000000
 Stoichiometry    C7H7N
 Framework group  C1[X(C7H7N)]
 Deg. of freedom    39
 Full point group                 C1      NOp   1
 Largest Abelian subgroup         C1      NOp   1
 Largest concise Abelian subgroup C1      NOp   1
                         Standard orientation:                         
 ---------------------------------------------------------------------
 Center     Atomic      Atomic             Coordinates (Angstroms)
 Number     Number       Type             X           Y           Z
 ---------------------------------------------------------------------
      1          1           0        3.942211   -0.015150    0.261792
      2          6           0        2.886975    0.013580    0.515761
      3          1           0        2.637076    0.037276    1.571205
      4          6           0        1.958628   -0.002682   -0.449463
      5          1           0        2.278323   -0.055914   -1.487980
      6          6           0        0.507949    0.020285   -0.214530
      7          6           0       -0.220705    1.208275   -0.127013
      8          1           0        0.253819    2.178281   -0.221499
      9          6           0       -1.590231    1.136402    0.073742
     10          1           0       -2.190107    2.038499    0.151282
     11          7           0       -2.275191   -0.020556    0.180935
     12          6           0       -1.556283   -1.157530    0.076281
     13          1           0       -2.129429   -2.076328    0.159903
     14          6           0       -0.184838   -1.188290   -0.125119
     15          1           0        0.325475   -2.143011   -0.199209
 ---------------------------------------------------------------------
 Rotational constants (GHZ):           5.2607243           1.5252571           1.2531913
 Standard basis: 6-311++G(d,p) (5D, 7F)
 There are   233 symmetry adapted cartesian basis functions of A   symmetry.
 There are   225 symmetry adapted basis functions of A   symmetry.
   225 basis functions,   351 primitive gaussians,   233 cartesian basis functions
    28 alpha electrons       28 beta electrons
       nuclear repulsion energy       322.7317425990 Hartrees.
 NAtoms=   15 NActive=   15 NUniq=   15 SFac= 1.00D+00 NAtFMM=   60 NAOKFM=F Big=F
 Integral buffers will be    131072 words long.
 Raffenetti 2 integral format.
 Two-electron integral symmetry is turned on.
 Nuclear repulsion after empirical dispersion term =      322.7061098139 Hartrees.
 One-electron integrals computed using PRISM.
 NBasis=   225 RedAO= T EigKep=  4.82D-06  NBF=   225
 NBsUse=   225 1.00D-06 EigRej= -1.00D+00 NBFU=   225
 ExpMin= 3.60D-02 ExpMax= 6.29D+03 ExpMxC= 9.49D+02 IAcc=3 IRadAn=         5 AccDes= 0.00D+00
 Harris functional with IExCor=  402 and IRadAn=       5 diagonalized for initial guess.
 HarFok:  IExCor=  402 AccDes= 0.00D+00 IRadAn=         5 IDoV= 1 UseB2=F ITyADJ=14
 ICtDFT=  3500011 ScaDFX=  1.000000  1.000000  1.000000  1.000000
 FoFCou: FMM=F IPFlag=           0 FMFlag=      100000 FMFlg1=           0
         NFxFlg=           0 DoJE=T BraDBF=F KetDBF=T FulRan=T
         wScrn=  0.000000 ICntrl=       500 IOpCl=  0 I1Cent=   200000004 NGrid=           0
         NMat0=    1 NMatS0=      1 NMatT0=    0 NMatD0=    1 NMtDS0=    0 NMtDT0=    0
 Petite list used in FoFCou.
 Requested convergence on RMS density matrix=1.00D-08 within 128 cycles.
 Requested convergence on MAX density matrix=1.00D-06.
 Requested convergence on             energy=1.00D-06.
 No special actions if energy rises.
 SCF Done:  E(RB3LYP) =  -325.789954322     A.U. after   14 cycles
            NFock= 14  Conv=0.28D-08     -V/T= 2.0046
 SCF density gives NOpUse=  1 NOpAll=  1.

 **********************************************************************

            Population analysis using the SCF density.

 **********************************************************************

 Orbital symmetries:
 BldTbl:  Degeneracy threshold= 1.00D-02
       Occupied  (A) (A) (A) (A) (A) (A) (A) (A) (A) (A) (A) (A)
                 (A) (A) (A) (A) (A) (A) (A) (A) (A) (A) (A) (A)
                 (A) (A) (A) (A)
       Virtual   (A) (A) (A) (A) (A) (A) (A) (A) (A) (A) (A) (A)
                 (A) (A) (A) (A) (A) (A) (A) (A) (A) (A) (A) (A)
                 (A) (A) (A) (A) (A) (A) (A) (A) (A) (A) (A) (A)
                 (A) (A) (A) (A) (A) (A) (A) (A) (A) (A) (A) (A)
                 (A) (A) (A) (A) (A) (A) (A) (A) (A) (A) (A) (A)
                 (A) (A) (A) (A) (A) (A) (A) (A) (A) (A) (A) (A)
                 (A) (A) (A) (A) (A) (A) (A) (A) (A) (A) (A) (A)
                 (A) (A) (A) (A) (A) (A) (A) (A) (A) (A) (A) (A)
                 (A) (A) (A) (A) (A) (A) (A) (A) (A) (A) (A) (A)
                 (A) (A) (A) (A) (A) (A) (A) (A) (A) (A) (A) (A)
                 (A) (A) (A) (A) (A) (A) (A) (A) (A) (A) (A) (A)
                 (A) (A) (A) (A) (A) (A) (A) (A) (A) (A) (A) (A)
                 (A) (A) (A) (A) (A) (A) (A) (A) (A) (A) (A) (A)
                 (A) (A) (A) (A) (A) (A) (A) (A) (A) (A) (A) (A)
                 (A) (A) (A) (A) (A) (A) (A) (A) (A) (A) (A) (A)
                 (A) (A) (A) (A) (A) (A) (A) (A) (A) (A) (A) (A)
                 (A) (A) (A) (A) (A)
 The electronic state is 1-A.
 Alpha  occ. eigenvalues --  -14.31586 -10.21321 -10.21302 -10.20943 -10.19541
 Alpha  occ. eigenvalues --  -10.18983 -10.18900 -10.18480  -0.94641  -0.84123
 Alpha  occ. eigenvalues --   -0.77187  -0.76679  -0.65198  -0.63855  -0.58392
 Alpha  occ. eigenvalues --   -0.52210  -0.49567  -0.48175  -0.46875  -0.43923
 Alpha  occ. eigenvalues --   -0.43383  -0.40059  -0.37667  -0.37333  -0.29051
 Alpha  occ. eigenvalues --   -0.28564  -0.27541  -0.26610
 Alpha virt. eigenvalues --   -0.04349  -0.03302  -0.01402  -0.00726   0.00795
 Alpha virt. eigenvalues --    0.00894   0.01536   0.03334   0.03644   0.03662
 Alpha virt. eigenvalues --    0.05908   0.06940   0.07595   0.07953   0.08488
 Alpha virt. eigenvalues --    0.08600   0.10086   0.10777   0.11485   0.11591
 Alpha virt. eigenvalues --    0.11825   0.12735   0.12812   0.13157   0.13847
 Alpha virt. eigenvalues --    0.14017   0.14125   0.14485   0.15030   0.15515
 Alpha virt. eigenvalues --    0.16470   0.16541   0.18235   0.18640   0.20397
 Alpha virt. eigenvalues --    0.21252   0.22112   0.22396   0.23723   0.24144
 Alpha virt. eigenvalues --    0.24501   0.25376   0.25976   0.27161   0.27444
 Alpha virt. eigenvalues --    0.29355   0.29835   0.30036   0.30724   0.31530
 Alpha virt. eigenvalues --    0.32058   0.35794   0.35938   0.37883   0.38336
 Alpha virt. eigenvalues --    0.40543   0.48721   0.49792   0.49959   0.51508
 Alpha virt. eigenvalues --    0.53516   0.54153   0.54858   0.55831   0.56662
 Alpha virt. eigenvalues --    0.56880   0.60156   0.61639   0.61971   0.62534
 Alpha virt. eigenvalues --    0.63325   0.63948   0.67031   0.67565   0.69530
 Alpha virt. eigenvalues --    0.72076   0.74836   0.75506   0.75930   0.76319
 Alpha virt. eigenvalues --    0.78973   0.79418   0.79706   0.82490   0.86736
 Alpha virt. eigenvalues --    0.87494   0.87756   0.89490   0.90128   0.90905
 Alpha virt. eigenvalues --    0.95765   0.97921   0.98435   1.00373   1.00615
 Alpha virt. eigenvalues --    1.05418   1.06419   1.07738   1.09497   1.12347
 Alpha virt. eigenvalues --    1.14904   1.19701   1.28745   1.29589   1.36434
 Alpha virt. eigenvalues --    1.41801   1.43520   1.44515   1.50427   1.51556
 Alpha virt. eigenvalues --    1.52106   1.54668   1.55194   1.58922   1.59857
 Alpha virt. eigenvalues --    1.61862   1.64858   1.66251   1.67708   1.72482
 Alpha virt. eigenvalues --    1.75107   1.76609   1.76864   1.78783   1.79910
 Alpha virt. eigenvalues --    1.80471   1.89340   1.90084   1.93840   1.96966
 Alpha virt. eigenvalues --    1.97840   1.99444   1.99690   2.04992   2.05500
 Alpha virt. eigenvalues --    2.08570   2.09058   2.17611   2.20584   2.21934
 Alpha virt. eigenvalues --    2.24738   2.31637   2.33595   2.39863   2.40483
 Alpha virt. eigenvalues --    2.45984   2.46601   2.46964   2.56088   2.57916
 Alpha virt. eigenvalues --    2.60338   2.63511   2.65570   2.67360   2.69949
 Alpha virt. eigenvalues --    2.71321   2.73165   2.74151   2.74438   2.76576
 Alpha virt. eigenvalues --    2.80072   2.82466   2.84053   2.89182   2.89981
 Alpha virt. eigenvalues --    2.92641   2.96671   2.97670   3.02483   3.04209
 Alpha virt. eigenvalues --    3.13160   3.19136   3.26380   3.38103   3.41960
 Alpha virt. eigenvalues --    3.48230   3.54411   3.63463   3.66994   3.72837
 Alpha virt. eigenvalues --    3.77479   3.92200   4.00048   4.00797   4.07501
 Alpha virt. eigenvalues --    4.25706   4.40284   4.48311   5.20563  23.65640
 Alpha virt. eigenvalues --   23.80134  23.90800  23.99522  24.09348  24.12163
 Alpha virt. eigenvalues --   24.26087  35.63304
          Condensed to atoms (all electrons):
               1          2          3          4          5          6
     1  H    0.551473   0.405980  -0.042384  -0.040544  -0.013258   0.013721
     2  C    0.405980   5.331924   0.355993   0.554265  -0.086042  -0.183162
     3  H   -0.042384   0.355993   0.543033   0.002275   0.009754   0.002337
     4  C   -0.040544   0.554265   0.002275   6.979144   0.380671  -0.734590
     5  H   -0.013258  -0.086042   0.009754   0.380671   0.533331  -0.002612
     6  C    0.013721  -0.183162   0.002337  -0.734590  -0.002612   6.903815
     7  C    0.001336   0.015322   0.000135  -0.148720   0.000877  -0.363195
     8  H   -0.000750  -0.001747   0.000995   0.026481   0.002544  -0.034553
     9  C   -0.001224   0.062836  -0.007571  -0.466226  -0.005695   0.267079
    10  H    0.000055   0.002842  -0.000342  -0.001333  -0.000324   0.019224
    11  N    0.000258  -0.003600   0.000790   0.104198   0.000583   0.038030
    12  C   -0.001918   0.057704  -0.007069  -0.523708  -0.005959   0.278208
    13  H    0.000033   0.002688  -0.000307  -0.002251  -0.000235   0.015667
    14  C    0.001013   0.034101   0.001651  -0.042214  -0.001020  -0.356035
    15  H   -0.000564  -0.000606   0.000823   0.032631   0.002472  -0.050122
               7          8          9         10         11         12
     1  H    0.001336  -0.000750  -0.001224   0.000055   0.000258  -0.001918
     2  C    0.015322  -0.001747   0.062836   0.002842  -0.003600   0.057704
     3  H    0.000135   0.000995  -0.007571  -0.000342   0.000790  -0.007069
     4  C   -0.148720   0.026481  -0.466226  -0.001333   0.104198  -0.523708
     5  H    0.000877   0.002544  -0.005695  -0.000324   0.000583  -0.005959
     6  C   -0.363195  -0.034553   0.267079   0.019224   0.038030   0.278208
     7  C    6.922536   0.288510  -0.391289  -0.163975   0.155882  -0.525055
     8  H    0.288510   0.507596  -0.021915  -0.008980   0.004335  -0.002818
     9  C   -0.391289  -0.021915   6.296231   0.530816   0.054658   0.728299
    10  H   -0.163975  -0.008980   0.530816   0.559795  -0.121184   0.055470
    11  N    0.155882   0.004335   0.054658  -0.121184   6.738268   0.037416
    12  C   -0.525055  -0.002818   0.728299   0.055470   0.037416   6.398029
    13  H   -0.051298   0.000665   0.056075   0.002146  -0.121153   0.528885
    14  C    0.027202   0.042255  -0.589295  -0.048239   0.174106  -0.482858
    15  H    0.043181  -0.001415  -0.002951   0.000675   0.004616  -0.024347
              13         14         15
     1  H    0.000033   0.001013  -0.000564
     2  C    0.002688   0.034101  -0.000606
     3  H   -0.000307   0.001651   0.000823
     4  C   -0.002251  -0.042214   0.032631
     5  H   -0.000235  -0.001020   0.002472
     6  C    0.015667  -0.356035  -0.050122
     7  C   -0.051298   0.027202   0.043181
     8  H    0.000665   0.042255  -0.001415
     9  C    0.056075  -0.589295  -0.002951
    10  H    0.002146  -0.048239   0.000675
    11  N   -0.121153   0.174106   0.004616
    12  C    0.528885  -0.482858  -0.024347
    13  H    0.560551  -0.155697  -0.008782
    14  C   -0.155697   6.911866   0.297261
    15  H   -0.008782   0.297261   0.508613
 Mulliken charges:
               1
     1  H    0.126773
     2  C   -0.548497
     3  H    0.139885
     4  C   -0.120077
     5  H    0.184911
     6  C    0.186187
     7  C    0.188548
     8  H    0.198795
     9  C   -0.509829
    10  H    0.173355
    11  N   -0.067201
    12  C   -0.510280
    13  H    0.173012
    14  C    0.185903
    15  H    0.198514
 Sum of Mulliken charges =  -0.00000
 Mulliken charges with hydrogens summed into heavy atoms:
               1
     2  C   -0.281839
     4  C    0.064833
     6  C    0.186187
     7  C    0.387344
     9  C   -0.336474
    11  N   -0.067201
    12  C   -0.337268
    14  C    0.384417
 DipInt: DoE/N= T F RetVal/Mat= T F Init=T NMatP=  1 IDeriv=0 Min/MaxMlt=  0  4
 Entering OneElI...
 OneElI was handed 25769662335 working-precision words.
 Multipole integrals L=0 to 4 MinM= 0 MaxM= 0.
 Requested accuracy = 0.1000D-12
 ShPair: Thresh= 1.00D-13 NBox=     0 BxSize= 0.00D+00 RnKept= 1.22D+01
         NSMCal=                 3486 NSMKep=                3369
 PrmmSu-InSpLW:  IPartL=    0 NPrtUS=    1 NPrtUL=    1 DoSpLW=F IThBeg=    0 IThEnd=    0 NThAct=    1.
 PrsmSu:  NPrtUS=   1 ThrOK=F IAlg=1 NPAlg=1 LenDen=           0 ISkipM=0 DoSpLW=F IThBeg=    0 IThEnd=    0.
 Prism:   IPart=     0 DynPar=F LinDyn=F Incr=          33.
 PRISM was handed 25769430476 working-precision words and  3369 shell-pairs
 IPart=  0 NShTot=        3369 NBatch=          61 AvBLen=        55.2
 PrsmSu-ThDecC:  IPartSL=    0    0 NPrtUSL=    1    1 IThBeg=    0 IThEnd=    0 CPU=   -1 GPU=   -1 NThAct=    1.
 PrSmSu:  NxtVal=             34.
 Electronic moments (au):
        -56.00000000          0.98090655         -0.00241477         -0.15290357
       -675.09164039       -213.63936569        -66.11931801         -0.23926722
          0.19164022          0.03888442       -845.19067729         -0.36791056
         -5.09997485        279.00265944         -2.96404135       -222.16199887
       -115.22318353         -0.12755964         10.67764031         -3.84400813
     -16978.38303845      -2318.72703299       -391.67385156         -9.05102484
       -743.29528179          0.12793345          6.79203205        -49.91841317
         -3.35637531      -1559.25095575      -1082.75200381       -204.82754765
        -10.45769008         52.47072255         -0.94407783
 Electronic spatial extent (au):  <R**2>=            954.8503
 DipInt: DoE/N= F T RetVal/Mat= T F Init=T NMatP=  1 IDeriv=0 Min/MaxMlt=  0  4
 Nuclear    moments (au):
         56.00000000         -0.00000000          0.00000000          0.00000000
        636.35777497        181.53442476         30.21200805          0.00000000
          0.00000000          0.00000000        892.61038031          0.20029416
          5.61901906       -296.28609880          2.99883731        219.46896960
        122.82808054          0.02629854        -11.05156092          4.19177003
      14372.93476674       1593.91591794        149.19761001         -0.42628263
        761.74566414         -0.84555425         -7.95111141         50.42094690
          4.20462554       1021.59850152        629.25340985         12.67744745
         12.44469460        -61.66222713          0.45101957
 Total      moments (au):
         -0.00000000          0.98090655         -0.00241477         -0.15290357
        -38.73386543        -32.10494093        -35.90730996         -0.23926722
          0.19164022          0.03888442         47.41970302         -0.16761640
          0.51904421        -17.28343936          0.03479596         -2.69302927
          7.60489701         -0.10126111         -0.37392061          0.34776190
      -2605.44827170       -724.81111505       -242.47624156         -9.47730747
         18.45038235         -0.71762080         -1.15907936          0.50253373
          0.84825022       -537.65245423       -453.49859396       -192.15010020
          1.98700452         -9.19150458         -0.49305825
 Traceless Quadrup. (au):
         -3.15182665          3.47709784         -0.32527119         -0.23926722
          0.19164022          0.03888442
 Charge=             -0.0000 electrons
 Dipole moment (field-independent basis, Debye):
    X=              2.4932    Y=             -0.0061    Z=             -0.3886  Tot=              2.5233
 Quadrupole moment (field-independent basis, Debye-Ang):
   XX=            -52.0984   YY=            -43.1822   ZZ=            -48.2966
   XY=             -0.3218   XZ=              0.2578   YZ=              0.0523
 Traceless Quadrupole moment (field-independent basis, Debye-Ang):
   XX=             -4.2393   YY=              4.6768   ZZ=             -0.4375
   XY=             -0.3218   XZ=              0.2578   YZ=              0.0523
 Octapole moment (field-independent basis, Debye-Ang**2):
  XXX=             33.7515  YYY=             -0.1193  ZZZ=              0.3694  XYY=            -12.3017
  XXY=              0.0248  XXZ=             -1.9168  XZZ=              5.4129  YZZ=             -0.0721
  YYZ=             -0.2661  XYZ=              0.2475
 Hexadecapole moment (field-independent basis, Debye-Ang**3):
 XXXX=           -981.3368 YYYY=           -272.9986 ZZZZ=            -91.3282 XXXY=             -3.5696
 XXXZ=              6.9493 YYYX=             -0.2703 YYYZ=             -0.4366 ZZZX=              0.1893
 ZZZY=              0.3195 XXYY=           -202.5057 XXZZ=           -170.8093 YYZZ=            -72.3729
 XXYZ=              0.7484 YYXZ=             -3.4620 ZZXY=             -0.1857
 N-N= 3.227061098139D+02 E-N=-1.401590784926D+03  KE= 3.242948710091D+02
 Entering OneElI...
 OneElI was handed 25769692645 working-precision words.
 Calculate electrostatic properties
    NBasis =   225  MinDer = 0  MaxDer = 0
    NGrid  =    15  NMatD  =   1
 Requested accuracy = 0.1000D-12
 ShPair: Thresh= 1.00D-13 NBox=     0 BxSize= 0.00D+00 RnKept= 1.22D+01
         NSMCal=                 3486 NSMKep=                3226
 PrmmSu-InSpLW:  IPartL=    0 NPrtUS=   48 NPrtUL=    1 DoSpLW=F IThBeg=    0 IThEnd=   47 NThAct=   48.
 PrsmSu:  NPrtUS=  48 ThrOK=T IAlg=1 NPAlg=1 LenDen=           0 ISkipM=0 DoSpLW=F IThBeg=    0 IThEnd=   47.
 Prism:   IPart=     0 DynPar=F LinDyn=F Incr=          10.
 PRISM was handed   536794373 working-precision words and  3226 shell-pairs
 PRISM was handed   536794373 working-precision words and  3226 shell-pairs
 PRISM was handed   536794373 working-precision words and  3226 shell-pairs
 PRISM was handed   536794373 working-precision words and  3226 shell-pairs
 PRISM was handed   536794373 working-precision words and  3226 shell-pairs
 PRISM was handed   536794373 working-precision words and  3226 shell-pairs
 PRISM was handed   536794373 working-precision words and  3226 shell-pairs
 PRISM was handed   536794373 working-precision words and  3226 shell-pairs
 PRISM was handed   536794373 working-precision words and  3226 shell-pairs
 PRISM was handed   536794373 working-precision words and  3226 shell-pairs
 PRISM was handed   536794373 working-precision words and  3226 shell-pairs
 PRISM was handed   536794373 working-precision words and  3226 shell-pairs
 PRISM was handed   536794373 working-precision words and  3226 shell-pairs
 PRISM was handed   536794373 working-precision words and  3226 shell-pairs
 PRISM was handed   536794373 working-precision words and  3226 shell-pairs
 PRISM was handed   536794373 working-precision words and  3226 shell-pairs
 PRISM was handed   536794373 working-precision words and  3226 shell-pairs
 PRISM was handed   536794373 working-precision words and  3226 shell-pairs
 PRISM was handed   536794373 working-precision words and  3226 shell-pairs
 PRISM was handed   536794373 working-precision words and  3226 shell-pairs
 PRISM was handed   536794373 working-precision words and  3226 shell-pairs
 PRISM was handed   536794373 working-precision words and  3226 shell-pairs
 PRISM was handed   536794373 working-precision words and  3226 shell-pairs
 PRISM was handed   536794373 working-precision words and  3226 shell-pairs
 PRISM was handed   536794373 working-precision words and  3226 shell-pairs
 PRISM was handed   536794373 working-precision words and  3226 shell-pairs
 PRISM was handed   536794373 working-precision words and  3226 shell-pairs
 PRISM was handed   536794373 working-precision words and  3226 shell-pairs
 PRISM was handed   536794373 working-precision words and  3226 shell-pairs
 PRISM was handed   536794373 working-precision words and  3226 shell-pairs
 PRISM was handed   536794373 working-precision words and  3226 shell-pairs
 PRISM was handed   536794373 working-precision words and  3226 shell-pairs
 PRISM was handed   536794373 working-precision words and  3226 shell-pairs
 PRISM was handed   536794373 working-precision words and  3226 shell-pairs
 PRISM was handed   536794373 working-precision words and  3226 shell-pairs
 PRISM was handed   536794373 working-precision words and  3226 shell-pairs
 PRISM was handed   536794373 working-precision words and  3226 shell-pairs
 PRISM was handed   536794373 working-precision words and  3226 shell-pairs
 PRISM was handed   536794373 working-precision words and  3226 shell-pairs
 PRISM was handed   536794373 working-precision words and  3226 shell-pairs
 PRISM was handed   536794373 working-precision words and  3226 shell-pairs
 PRISM was handed   536794373 working-precision words and  3226 shell-pairs
 PRISM was handed   536794373 working-precision words and  3226 shell-pairs
 PRISM was handed   536794373 working-precision words and  3226 shell-pairs
 PRISM was handed   536794373 working-precision words and  3226 shell-pairs
 PRISM was handed   536794373 working-precision words and  3226 shell-pairs
 PRISM was handed   536794373 working-precision words and  3226 shell-pairs
 PRISM was handed   536794373 working-precision words and  3226 shell-pairs
 IPart= 38 NShTot=         855 NBatch=          57 AvBLen=        15.0
 PrsmSu-ThDecC:  IPartSL=   38    0 NPrtUSL=   48    1 IThBeg=    0 IThEnd=   47 CPU=   -1 GPU=   -1 NThAct=   48.
 IPart= 16 NShTot=        1020 NBatch=          68 AvBLen=        15.0
 IPart= 12 NShTot=        1080 NBatch=          72 AvBLen=        15.0
 PrsmSu-ThDecC:  IPartSL=   16    0 NPrtUSL=   48    1 IThBeg=    0 IThEnd=   47 CPU=   -1 GPU=   -1 NThAct=   47.
 PrsmSu-ThDecC:  IPartSL=   12    0 NPrtUSL=   48    1 IThBeg=    0 IThEnd=   47 CPU=   -1 GPU=   -1 NThAct=   46.
 IPart=  8 NShTot=        1125 NBatch=          75 AvBLen=        15.0
 PrsmSu-ThDecC:  IPartSL=    8    0 NPrtUSL=   48    1 IThBeg=    0 IThEnd=   47 CPU=   -1 GPU=   -1 NThAct=   45.
 IPart=  0 NShTot=        1500 NBatch=         100 AvBLen=        15.0
 PrsmSu-ThDecC:  IPartSL=    0    0 NPrtUSL=   48    1 IThBeg=    0 IThEnd=   47 CPU=   -1 GPU=   -1 NThAct=   44.
 IPart= 21 NShTot=         930 NBatch=          62 AvBLen=        15.0
 PrsmSu-ThDecC:  IPartSL=   21    0 NPrtUSL=   48    1 IThBeg=    0 IThEnd=   47 CPU=   -1 GPU=   -1 NThAct=   43.
 IPart= 30 NShTot=         915 NBatch=          61 AvBLen=        15.0
 PrsmSu-ThDecC:  IPartSL=   30    0 NPrtUSL=   48    1 IThBeg=    0 IThEnd=   47 CPU=   -1 GPU=   -1 NThAct=   42.
 IPart= 20 NShTot=         945 NBatch=          63 AvBLen=        15.0
 PrsmSu-ThDecC:  IPartSL=   20    0 NPrtUSL=   48    1 IThBeg=    0 IThEnd=   47 CPU=   -1 GPU=   -1 NThAct=   41.
 IPart= 14 NShTot=        1050 NBatch=          70 AvBLen=        15.0
 PrsmSu-ThDecC:  IPartSL=   14    0 NPrtUSL=   48    1 IThBeg=    0 IThEnd=   47 CPU=   -1 GPU=   -1 NThAct=   40.
 IPart= 41 NShTot=         840 NBatch=          56 AvBLen=        15.0
 PrsmSu-ThDecC:  IPartSL=   41    0 NPrtUSL=   48    1 IThBeg=    0 IThEnd=   47 CPU=   -1 GPU=   -1 NThAct=   39.
 IPart= 18 NShTot=        1020 NBatch=          68 AvBLen=        15.0
 PrsmSu-ThDecC:  IPartSL=   18    0 NPrtUSL=   48    1 IThBeg=    0 IThEnd=   47 CPU=   -1 GPU=   -1 NThAct=   38.
 IPart= 23 NShTot=         930 NBatch=          62 AvBLen=        15.0
 PrsmSu-ThDecC:  IPartSL=   23    0 NPrtUSL=   48    1 IThBeg=    0 IThEnd=   47 CPU=   -1 GPU=   -1 NThAct=   37.
 IPart=  6 NShTot=        1320 NBatch=          88 AvBLen=        15.0
 PrsmSu-ThDecC:  IPartSL=    6    0 NPrtUSL=   48    1 IThBeg=    0 IThEnd=   47 CPU=   -1 GPU=   -1 NThAct=   36.
 IPart= 22 NShTot=         930 NBatch=          62 AvBLen=        15.0
 PrsmSu-ThDecC:  IPartSL=   22    0 NPrtUSL=   48    1 IThBeg=    0 IThEnd=   47 CPU=   -1 GPU=   -1 NThAct=   35.
 IPart= 19 NShTot=         990 NBatch=          66 AvBLen=        15.0
 PrsmSu-ThDecC:  IPartSL=   19    0 NPrtUSL=   48    1 IThBeg=    0 IThEnd=   47 CPU=   -1 GPU=   -1 NThAct=   34.
 IPart= 28 NShTot=         915 NBatch=          61 AvBLen=        15.0
 PrsmSu-ThDecC:  IPartSL=   28    0 NPrtUSL=   48    1 IThBeg=    0 IThEnd=   47 CPU=   -1 GPU=   -1 NThAct=   33.
 IPart= 31 NShTot=         915 NBatch=          61 AvBLen=        15.0
 PrsmSu-ThDecC:  IPartSL=   31    0 NPrtUSL=   48    1 IThBeg=    0 IThEnd=   47 CPU=   -1 GPU=   -1 NThAct=   32.
 IPart= 25 NShTot=         930 NBatch=          62 AvBLen=        15.0
 PrsmSu-ThDecC:  IPartSL=   25    0 NPrtUSL=   48    1 IThBeg=    0 IThEnd=   47 CPU=   -1 GPU=   -1 NThAct=   31.
 IPart= 44 NShTot=         825 NBatch=          55 AvBLen=        15.0
 PrsmSu-ThDecC:  IPartSL=   44    0 NPrtUSL=   48    1 IThBeg=    0 IThEnd=   47 CPU=   -1 GPU=   -1 NThAct=   30.
 IPart= 37 NShTot=         855 NBatch=          57 AvBLen=        15.0
 PrsmSu-ThDecC:  IPartSL=   37    0 NPrtUSL=   48    1 IThBeg=    0 IThEnd=   47 CPU=   -1 GPU=   -1 NThAct=   29.
 IPart= 10 NShTot=        1095 NBatch=          73 AvBLen=        15.0
 PrsmSu-ThDecC:  IPartSL=   10    0 NPrtUSL=   48    1 IThBeg=    0 IThEnd=   47 CPU=   -1 GPU=   -1 NThAct=   28.
 IPart=  5 NShTot=        1350 NBatch=          90 AvBLen=        15.0
 PrsmSu-ThDecC:  IPartSL=    5    0 NPrtUSL=   48    1 IThBeg=    0 IThEnd=   47 CPU=   -1 GPU=   -1 NThAct=   27.
 IPart= 24 NShTot=         930 NBatch=          62 AvBLen=        15.0
 PrsmSu-ThDecC:  IPartSL=   24    0 NPrtUSL=   48    1 IThBeg=    0 IThEnd=   47 CPU=   -1 GPU=   -1 NThAct=   26.
 IPart= 15 NShTot=        1050 NBatch=          70 AvBLen=        15.0
 PrsmSu-ThDecC:  IPartSL=   15    0 NPrtUSL=   48    1 IThBeg=    0 IThEnd=   47 CPU=   -1 GPU=   -1 NThAct=   25.
 IPart= 26 NShTot=         915 NBatch=          61 AvBLen=        15.0
 PrsmSu-ThDecC:  IPartSL=   26    0 NPrtUSL=   48    1 IThBeg=    0 IThEnd=   47 CPU=   -1 GPU=   -1 NThAct=   24.
 IPart= 45 NShTot=         825 NBatch=          55 AvBLen=        15.0
 PrsmSu-ThDecC:  IPartSL=   45    0 NPrtUSL=   48    1 IThBeg=    0 IThEnd=   47 CPU=   -1 GPU=   -1 NThAct=   23.
 IPart= 33 NShTot=         900 NBatch=          60 AvBLen=        15.0
 PrsmSu-ThDecC:  IPartSL=   33    0 NPrtUSL=   48    1 IThBeg=    0 IThEnd=   47 CPU=   -1 GPU=   -1 NThAct=   22.
 IPart= 17 NShTot=        1020 NBatch=          68 AvBLen=        15.0
 PrsmSu-ThDecC:  IPartSL=   17    0 NPrtUSL=   48    1 IThBeg=    0 IThEnd=   47 CPU=   -1 GPU=   -1 NThAct=   21.
 IPart= 32 NShTot=         900 NBatch=          60 AvBLen=        15.0
 PrsmSu-ThDecC:  IPartSL=   32    0 NPrtUSL=   48    1 IThBeg=    0 IThEnd=   47 CPU=   -1 GPU=   -1 NThAct=   20.
 IPart= 46 NShTot=         825 NBatch=          55 AvBLen=        15.0
 PrsmSu-ThDecC:  IPartSL=   46    0 NPrtUSL=   48    1 IThBeg=    0 IThEnd=   47 CPU=   -1 GPU=   -1 NThAct=   19.
 IPart= 39 NShTot=         840 NBatch=          56 AvBLen=        15.0
 IPart= 47 NShTot=         810 NBatch=          54 AvBLen=        15.0
 PrsmSu-ThDecC:  IPartSL=   39    0 NPrtUSL=   48    1 IThBeg=    0 IThEnd=   47 CPU=   -1 GPU=   -1 NThAct=   18.
 PrsmSu-ThDecC:  IPartSL=   47    0 NPrtUSL=   48    1 IThBeg=    0 IThEnd=   47 CPU=   -1 GPU=   -1 NThAct=   17.
 IPart= 34 NShTot=         900 NBatch=          60 AvBLen=        15.0
 PrsmSu-ThDecC:  IPartSL=   34    0 NPrtUSL=   48    1 IThBeg=    0 IThEnd=   47 CPU=   -1 GPU=   -1 NThAct=   16.
 IPart= 29 NShTot=         915 NBatch=          61 AvBLen=        15.0
 PrsmSu-ThDecC:  IPartSL=   29    0 NPrtUSL=   48    1 IThBeg=    0 IThEnd=   47 CPU=   -1 GPU=   -1 NThAct=   15.
 IPart= 11 NShTot=        1080 NBatch=          72 AvBLen=        15.0
 PrsmSu-ThDecC:  IPartSL=   11    0 NPrtUSL=   48    1 IThBeg=    0 IThEnd=   47 CPU=   -1 GPU=   -1 NThAct=   14.
 IPart= 27 NShTot=         915 NBatch=          61 AvBLen=        15.0
 IPart= 43 NShTot=         825 NBatch=          55 AvBLen=        15.0
 IPart= 35 NShTot=         870 NBatch=          58 AvBLen=        15.0
 IPart=  9 NShTot=        1125 NBatch=          75 AvBLen=        15.0
 PrsmSu-ThDecC:  IPartSL=   27    0 NPrtUSL=   48    1 IThBeg=    0 IThEnd=   47 CPU=   -1 GPU=   -1 NThAct=   13.
 PrsmSu-ThDecC:  IPartSL=    9    0 NPrtUSL=   48    1 IThBeg=    0 IThEnd=   47 CPU=   -1 GPU=   -1 NThAct=   12.
 PrsmSu-ThDecC:  IPartSL=   35    0 NPrtUSL=   48    1 IThBeg=    0 IThEnd=   47 CPU=   -1 GPU=   -1 NThAct=   11.
 PrsmSu-ThDecC:  IPartSL=   43    0 NPrtUSL=   48    1 IThBeg=    0 IThEnd=   47 CPU=   -1 GPU=   -1 NThAct=   10.
 IPart= 36 NShTot=         855 NBatch=          57 AvBLen=        15.0
 PrsmSu-ThDecC:  IPartSL=   36    0 NPrtUSL=   48    1 IThBeg=    0 IThEnd=   47 CPU=   -1 GPU=   -1 NThAct=    9.
 IPart= 42 NShTot=         825 NBatch=          55 AvBLen=        15.0
 IPart=  1 NShTot=        1455 NBatch=          97 AvBLen=        15.0
 PrsmSu-ThDecC:  IPartSL=   42    0 NPrtUSL=   48    1 IThBeg=    0 IThEnd=   47 CPU=   -1 GPU=   -1 NThAct=    8.
 PrsmSu-ThDecC:  IPartSL=    1    0 NPrtUSL=   48    1 IThBeg=    0 IThEnd=   47 CPU=   -1 GPU=   -1 NThAct=    7.
 IPart= 40 NShTot=         840 NBatch=          56 AvBLen=        15.0
 PrsmSu-ThDecC:  IPartSL=   40    0 NPrtUSL=   48    1 IThBeg=    0 IThEnd=   47 CPU=   -1 GPU=   -1 NThAct=    6.
 IPart=  3 NShTot=        1365 NBatch=          91 AvBLen=        15.0
 PrsmSu-ThDecC:  IPartSL=    3    0 NPrtUSL=   48    1 IThBeg=    0 IThEnd=   47 CPU=   -1 GPU=   -1 NThAct=    5.
 IPart= 13 NShTot=        1080 NBatch=          72 AvBLen=        15.0
 PrsmSu-ThDecC:  IPartSL=   13    0 NPrtUSL=   48    1 IThBeg=    0 IThEnd=   47 CPU=   -1 GPU=   -1 NThAct=    4.
 IPart=  7 NShTot=        1215 NBatch=          81 AvBLen=        15.0
 PrsmSu-ThDecC:  IPartSL=    7    0 NPrtUSL=   48    1 IThBeg=    0 IThEnd=   47 CPU=   -1 GPU=   -1 NThAct=    3.
 IPart=  4 NShTot=        1365 NBatch=          91 AvBLen=        15.0
 PrsmSu-ThDecC:  IPartSL=    4    0 NPrtUSL=   48    1 IThBeg=    0 IThEnd=   47 CPU=   -1 GPU=   -1 NThAct=    2.
 IPart=  2 NShTot=        1410 NBatch=          94 AvBLen=        15.0
 PrsmSu-ThDecC:  IPartSL=    2    0 NPrtUSL=   48    1 IThBeg=    0 IThEnd=   47 CPU=   -1 GPU=   -1 NThAct=    1.
 PrSmSu:  NxtVal=            481.
 --------------------------------------------------------
       Center         ----      EFG at Nuclei      ----
                      3XX-RR        3YY-RR        3ZZ-RR
 --------------------------------------------------------
     1   Atom       -0.291703      0.167063      0.124641
     2   Atom        0.158743     -0.316563      0.157820
     3   Atom        0.126134      0.166703     -0.292837
     4   Atom        0.123794     -0.296675      0.172881
     5   Atom        0.106766      0.164806     -0.271571
     6   Atom        0.138522      0.226097     -0.364619
     7   Atom        0.163812      0.112299     -0.276112
     8   Atom        0.058717     -0.224251      0.165533
     9   Atom        0.206417      0.123897     -0.330314
    10   Atom        0.010066     -0.172633      0.162567
    11   Atom        1.040466     -0.350403     -0.690062
    12   Atom        0.204511      0.126901     -0.331412
    13   Atom        0.022195     -0.184335      0.162140
    14   Atom        0.163917      0.114793     -0.278710
    15   Atom        0.044708     -0.210581      0.165873
 --------------------------------------------------------
                        XY            XZ            YZ
 --------------------------------------------------------
     1   Atom        0.012453      0.106346     -0.003437
     2   Atom       -0.007053      0.046910      0.012346
     3   Atom        0.002857      0.105324     -0.010881
     4   Atom       -0.006471      0.076136      0.014554
     5   Atom        0.006414      0.128303     -0.022042
     6   Atom        0.001095     -0.061824     -0.003719
     7   Atom       -0.006918     -0.067045     -0.003781
     8   Atom       -0.182083      0.021349      0.036436
     9   Atom       -0.063598     -0.082932      0.005737
    10   Atom        0.208469      0.020402     -0.026752
    11   Atom        0.020437     -0.259219     -0.005083
    12   Atom        0.065898     -0.083066     -0.010537
    13   Atom       -0.202653      0.020898      0.029593
    14   Atom        0.012976     -0.067094     -0.002044
    15   Atom        0.190696      0.018634     -0.027998
 --------------------------------------------------------


 ---------------------------------------------------------------------------------
              Nuclear Quadrupole Coupling Constant in Principal Axis System
 ---------------------------------------------------------------------------------

       Atom             a.u.   MegaHertz   Gauss  10(-4) cm-1        Axes

              Baa    -0.7281     3.497     1.248     1.166  0.1450  0.0055  0.9894
    11 N(14)  Bbb    -0.3507     1.684     0.601     0.562 -0.0153  0.9999 -0.0033
              Bcc     1.0788    -5.181    -1.849    -1.728  0.9893  0.0147 -0.1450
 

 ---------------------------------------------------------------------------------

 No NMR shielding tensors so no spin-rotation constants.
 Leave Link  601 at Thu Apr 21 16:32:44 2022, MaxMem= 25769803776 cpu:              10.9 elap:               0.3
 Calling FoFJK, ICntrl=      2127 FMM=F ISym2X=0 I1Cent= 0 IOpClX= 0 NMat=1 NMatS=1 NMatT=0.
 ***** Axes restored to original set *****
 -------------------------------------------------------------------
 Center     Atomic                   Forces (Hartrees/Bohr)
 Number     Number              X              Y              Z
 -------------------------------------------------------------------
      1        1           0.001003998    0.000504475   -0.000343303
      2        6           0.002069791   -0.008693229    0.002390454
      3        1           0.001613874   -0.000586446    0.001323257
      4        6          -0.014897971    0.010501578   -0.000966956
      5        1          -0.000151475   -0.000137396    0.000876632
      6        6           0.001558500   -0.003186494   -0.001924172
      7        6          -0.001442896    0.000068932    0.000099150
      8        1          -0.002140261    0.000384687   -0.001872991
      9        6           0.012045313   -0.004382283   -0.009827242
     10        1          -0.000962560    0.000364212    0.000363206
     11        7          -0.011833150    0.000183847    0.000069384
     12        6           0.012234516    0.003224607    0.009214085
     13        1          -0.000965115   -0.000053450   -0.000467795
     14        6           0.003144466    0.000847451   -0.001002460
     15        1          -0.001277030    0.000959510    0.002068752
 -------------------------------------------------------------------
 Cartesian Forces:  Max     0.014897971 RMS     0.004986525

 GradGradGradGradGradGradGradGradGradGradGradGradGradGradGradGradGradGrad
 Berny optimization.
 FormGI is forming the generalized inverse of G from B-inverse, IUseBI=4.
 Internal  Forces:  Max     0.010641762 RMS     0.003190361
 Search for a local minimum.
 Step number   1 out of a maximum of   75
 All quantities printed in internal units (Hartrees-Bohrs-Radians)
 Mixed Optimization -- RFO/linear search
 Second derivative matrix not updated -- first step.
 ITU=  0
     Eigenvalues ---    0.01166   0.01842   0.02051   0.02158   0.02197
     Eigenvalues ---    0.02210   0.02256   0.02294   0.02303   0.02340
     Eigenvalues ---    0.02892   0.02893   0.15998   0.15999   0.15999
     Eigenvalues ---    0.16000   0.16000   0.16000   0.16000   0.21998
     Eigenvalues ---    0.22001   0.22819   0.23876   0.24975   0.35055
     Eigenvalues ---    0.35264   0.35266   0.35309   0.35387   0.35411
     Eigenvalues ---    0.35518   0.35769   0.43095   0.44099   0.46726
     Eigenvalues ---    0.47974   0.53332   0.54515   0.57360
 RFO step:  Lambda=-1.93325870D-03 EMin= 1.16598490D-02
 Linear search not attempted -- first point.
 Iteration  1 RMS(Cart)=  0.02891346 RMS(Int)=  0.00037063
 Iteration  2 RMS(Cart)=  0.00047382 RMS(Int)=  0.00012329
 Iteration  3 RMS(Cart)=  0.00000013 RMS(Int)=  0.00012329
 Variable       Old X    -DE/DX   Delta X   Delta X   Delta X     New X
                                 (Linear)    (Quad)   (Total)
    R1        2.05177  -0.00104   0.00000  -0.00293  -0.00293   2.04883
    R2        2.05013  -0.00031   0.00000  -0.00086  -0.00086   2.04928
    R3        2.53093  -0.01040   0.00000  -0.01808  -0.01808   2.51285
    R4        2.05586   0.00043   0.00000   0.00123   0.00123   2.05709
    R5        2.77744   0.01033   0.00000   0.02874   0.02874   2.80618
    R6        2.63880  -0.00155   0.00000  -0.00245  -0.00242   2.63638
    R7        2.63791   0.00128   0.00000   0.00368   0.00369   2.64161
    R8        2.04842  -0.00051   0.00000  -0.00144  -0.00144   2.04698
    R9        2.61921   0.00566   0.00000   0.01166   0.01167   2.63088
   R10        2.05246  -0.00016   0.00000  -0.00044  -0.00044   2.05202
   R11        2.54883  -0.01031   0.00000  -0.01934  -0.01936   2.52947
   R12        2.54972  -0.01064   0.00000  -0.01995  -0.01998   2.52975
   R13        2.05249  -0.00012   0.00000  -0.00035  -0.00035   2.05214
   R14        2.62010   0.00496   0.00000   0.01031   0.01030   2.63039
   R15        2.05051  -0.00138   0.00000  -0.00387  -0.00387   2.04663
    A1        2.03982   0.00093   0.00000   0.00587   0.00579   2.04561
    A2        2.09992   0.00200   0.00000   0.01242   0.01235   2.11227
    A3        2.14329  -0.00292   0.00000  -0.01792  -0.01799   2.12530
    A4        2.07701   0.00048   0.00000   0.00239   0.00235   2.07936
    A5        2.17580  -0.00081   0.00000  -0.00357  -0.00361   2.17220
    A6        2.03018   0.00033   0.00000   0.00148   0.00144   2.03162
    A7        2.13927  -0.00206   0.00000  -0.00947  -0.00968   2.12960
    A8        2.07894   0.00799   0.00000   0.03049   0.03028   2.10923
    A9        2.06416  -0.00590   0.00000  -0.01969  -0.01982   2.04433
   A10        2.12635  -0.00342   0.00000  -0.02074  -0.02079   2.10555
   A11        2.07209   0.00142   0.00000   0.00808   0.00809   2.08018
   A12        2.08470   0.00201   0.00000   0.01280   0.01274   2.09744
   A13        2.10948  -0.00161   0.00000  -0.00795  -0.00798   2.10151
   A14        2.16251   0.00103   0.00000   0.00247   0.00245   2.16496
   A15        2.01118   0.00058   0.00000   0.00553   0.00551   2.01670
   A16        2.03317   0.00129   0.00000  -0.00016  -0.00022   2.03295
   A17        2.01054   0.00083   0.00000   0.00650   0.00651   2.01705
   A18        2.16156   0.00053   0.00000   0.00047   0.00043   2.16199
   A19        2.11109  -0.00135   0.00000  -0.00696  -0.00695   2.10414
   A20        2.07259   0.00164   0.00000   0.00935   0.00936   2.08196
   A21        2.12233  -0.00310   0.00000  -0.01870  -0.01871   2.10362
   A22        2.08821   0.00145   0.00000   0.00939   0.00938   2.09759
    D1        0.01147  -0.00035   0.00000  -0.01373  -0.01373  -0.00226
    D2        3.13123   0.00003   0.00000   0.00345   0.00345   3.13468
    D3       -3.11052  -0.00108   0.00000  -0.03732  -0.03733   3.13534
    D4        0.00924  -0.00069   0.00000  -0.02014  -0.02014  -0.01090
    D5        1.57080  -0.00069   0.00000  -0.04087  -0.04103   1.52977
    D6       -1.61481  -0.00008   0.00000  -0.00522  -0.00506  -1.61987
    D7       -1.59210  -0.00032   0.00000  -0.02409  -0.02426  -1.61636
    D8        1.50547   0.00029   0.00000   0.01156   0.01172   1.51719
    D9       -0.00824  -0.00001   0.00000  -0.00118  -0.00143  -0.00967
   D10        3.12255   0.00042   0.00000   0.01467   0.01417   3.13672
   D11       -3.10617  -0.00095   0.00000  -0.03775  -0.03733   3.13969
   D12        0.02462  -0.00052   0.00000  -0.02190  -0.02173   0.00289
   D13       -3.12464  -0.00015   0.00000  -0.01170  -0.01193  -3.13657
   D14        0.02803  -0.00026   0.00000  -0.01593  -0.01611   0.01191
   D15       -0.02517   0.00051   0.00000   0.02260   0.02252  -0.00265
   D16        3.12750   0.00040   0.00000   0.01837   0.01834  -3.13735
   D17        3.13703  -0.00017   0.00000  -0.00550  -0.00546   3.13158
   D18       -0.00959   0.00015   0.00000   0.00771   0.00772  -0.00187
   D19       -0.01510   0.00021   0.00000   0.00975   0.00986  -0.00524
   D20        3.12146   0.00053   0.00000   0.02296   0.02304  -3.13869
   D21       -0.00523   0.00010   0.00000   0.00557   0.00566   0.00043
   D22        3.13159   0.00040   0.00000   0.01807   0.01823  -3.13337
   D23       -3.13565  -0.00020   0.00000  -0.01033  -0.01046   3.13707
   D24        0.00463  -0.00011   0.00000  -0.00479  -0.00479  -0.00016
   D25        0.01078  -0.00014   0.00000  -0.00925  -0.00944   0.00133
   D26        3.14151  -0.00006   0.00000  -0.00529  -0.00545   3.13606
   D27       -3.13221  -0.00004   0.00000  -0.00341  -0.00349  -3.13569
   D28       -0.00147   0.00003   0.00000   0.00056   0.00050  -0.00097
         Item               Value     Threshold  Converged?
 Maximum Force            0.010642     0.000450     NO 
 RMS     Force            0.003190     0.000300     NO 
 Maximum Displacement     0.104892     0.001800     NO 
 RMS     Displacement     0.029008     0.001200     NO 
 Predicted change in Energy=-9.804394D-04
 GradGradGradGradGradGradGradGradGradGradGradGradGradGradGradGradGradGrad

                          Input orientation:                          
 ---------------------------------------------------------------------
 Center     Atomic      Atomic             Coordinates (Angstroms)
 Number     Number       Type             X           Y           Z
 ---------------------------------------------------------------------
      1          1           0        1.028740   -0.065546   -0.864058
      2          6           0        2.111706   -0.015394   -0.876289
      3          1           0        2.561161    0.920992   -1.187994
      4          6           0        2.850323   -1.061557   -0.518225
      5          1           0        2.354111   -1.979088   -0.206969
      6          6           0        4.335170   -1.079847   -0.514405
      7          6           0        5.077217   -0.659177    0.589563
      8          1           0        4.581853   -0.295076    1.481417
      9          6           0        6.467379   -0.706803    0.531230
     10          1           0        7.064574   -0.375547    1.375483
     11          7           0        7.158455   -1.138632   -0.530663
     12          6           0        6.440629   -1.542409   -1.586013
     13          1           0        7.016076   -1.885540   -2.440650
     14          6           0        5.049319   -1.533685   -1.627098
     15          1           0        4.528686   -1.869489   -2.515431
 ---------------------------------------------------------------------
                    Distance matrix (angstroms):
                    1          2          3          4          5
     1  H    0.000000
     2  C    1.084196   0.000000
     3  H    1.851083   1.084430   0.000000
     4  C    2.104710   1.329745   2.112512   0.000000
     5  H    2.418681   2.088742   3.068509   1.088564   0.000000
     6  C    3.476140   2.491548   2.757570   1.484965   2.197214
     7  C    4.342301   3.370079   3.462251   2.519555   3.129207
     8  H    4.263631   3.426167   3.561990   2.753953   3.263339
     9  C    5.651269   4.629367   4.567711   3.782896   4.368367
    10  H    6.445381   5.452622   5.341643   4.670830   5.221491
    11  N    6.231860   5.181775   5.080280   4.308839   4.888034
    12  C    5.656048   4.644895   4.612704   3.776465   4.334984
    13  H    6.453388   5.476999   5.412212   4.661348   5.170300
    14  C    4.347725   3.390942   3.522667   2.507605   3.078847
    15  H    4.269762   3.459227   3.663336   2.731024   3.173293
                    6          7          8          9         10
     6  C    0.000000
     7  C    1.395113   0.000000
     8  H    2.158708   1.083216   0.000000
     9  C    2.403920   1.392201   2.151181   0.000000
    10  H    3.393724   2.155854   2.486282   1.085880   0.000000
    11  N    2.823944   2.411708   3.376230   1.338536   2.055360
    12  C    2.407335   2.715165   3.797369   2.276329   3.243661
    13  H    3.398060   3.800701   4.882379   3.243850   4.104303
    14  C    1.397878   2.383092   3.378689   2.711643   3.797108
    15  H    2.159882   3.377385   4.296091   3.793747   4.878709
                   11         12         13         14         15
    11  N    0.000000
    12  C    1.338684   0.000000
    13  H    2.055771   1.085947   0.000000
    14  C    2.409708   1.391944   2.157267   0.000000
    15  H    3.374780   2.150889   2.488565   1.083032   0.000000
 Stoichiometry    C7H7N
 Framework group  C1[X(C7H7N)]
 Deg. of freedom    39
 Full point group                 C1      NOp   1
 Largest Abelian subgroup         C1      NOp   1
 Largest concise Abelian subgroup C1      NOp   1
                         Standard orientation:                         
 ---------------------------------------------------------------------
 Center     Atomic      Atomic             Coordinates (Angstroms)
 Number     Number       Type             X           Y           Z
 ---------------------------------------------------------------------
      1          1           0        3.950004   -0.006501    0.296193
      2          6           0        2.889646    0.019771    0.520764
      3          1           0        2.605606    0.089079    1.565038
      4          6           0        1.982129   -0.026975   -0.450035
      5          1           0        2.315265   -0.090455   -1.484424
      6          6           0        0.513824   -0.004449   -0.229368
      7          6           0       -0.201898    1.189455   -0.136219
      8          1           0        0.304085    2.143997   -0.214873
      9          6           0       -1.578577    1.141729    0.065528
     10          1           0       -2.153763    2.058852    0.150274
     11          7           0       -2.280700    0.007589    0.177011
     12          6           0       -1.588404   -1.134494    0.085110
     13          1           0       -2.171802   -2.045289    0.181967
     14          6           0       -0.212242   -1.193524   -0.115392
     15          1           0        0.288635   -2.151886   -0.175582
 ---------------------------------------------------------------------
 Rotational constants (GHZ):           5.3108133           1.5127709           1.2482506
 Standard basis: 6-311++G(d,p) (5D, 7F)
 There are   233 symmetry adapted cartesian basis functions of A   symmetry.
 There are   225 symmetry adapted basis functions of A   symmetry.
   225 basis functions,   351 primitive gaussians,   233 cartesian basis functions
    28 alpha electrons       28 beta electrons
       nuclear repulsion energy       322.6616440336 Hartrees.
 NAtoms=   15 NActive=   15 NUniq=   15 SFac= 1.00D+00 NAtFMM=   60 NAOKFM=F Big=F
 Integral buffers will be    131072 words long.
 Raffenetti 2 integral format.
 Two-electron integral symmetry is turned on.
 Nuclear repulsion after empirical dispersion term =      322.6360332460 Hartrees.
 One-electron integrals computed using PRISM.
 NBasis=   225 RedAO= T EigKep=  4.71D-06  NBF=   225
 NBsUse=   225 1.00D-06 EigRej= -1.00D+00 NBFU=   225
 Initial guess from the checkpoint file:  "4VP-2.chk"
 B after Tr=     0.000000   -0.000000   -0.000000
         Rot=    0.999974    0.005719    0.000980    0.004250 Ang=   0.82 deg.
 ExpMin= 3.60D-02 ExpMax= 6.29D+03 ExpMxC= 9.49D+02 IAcc=3 IRadAn=         5 AccDes= 0.00D+00
 Harris functional with IExCor=  402 and IRadAn=       5 diagonalized for initial guess.
 HarFok:  IExCor=  402 AccDes= 0.00D+00 IRadAn=         5 IDoV= 1 UseB2=F ITyADJ=14
 ICtDFT=  3500011 ScaDFX=  1.000000  1.000000  1.000000  1.000000
 FoFCou: FMM=F IPFlag=           0 FMFlag=      100000 FMFlg1=           0
         NFxFlg=           0 DoJE=T BraDBF=F KetDBF=T FulRan=T
         wScrn=  0.000000 ICntrl=       500 IOpCl=  0 I1Cent=   200000004 NGrid=           0
         NMat0=    1 NMatS0=      1 NMatT0=    0 NMatD0=    1 NMtDS0=    0 NMtDT0=    0
 Petite list used in FoFCou.
 Requested convergence on RMS density matrix=1.00D-08 within 128 cycles.
 Requested convergence on MAX density matrix=1.00D-06.
 Requested convergence on             energy=1.00D-06.
 No special actions if energy rises.
 SCF Done:  E(RB3LYP) =  -325.790978148     A.U. after   12 cycles
            NFock= 12  Conv=0.54D-08     -V/T= 2.0045
 Calling FoFJK, ICntrl=      2127 FMM=F ISym2X=0 I1Cent= 0 IOpClX= 0 NMat=1 NMatS=1 NMatT=0.
 ***** Axes restored to original set *****
 -------------------------------------------------------------------
 Center     Atomic                   Forces (Hartrees/Bohr)
 Number     Number              X              Y              Z
 -------------------------------------------------------------------
      1        1           0.000173807    0.000271764   -0.000016586
      2        6          -0.000163358    0.000320435    0.000530711
      3        1           0.000360668    0.000074852   -0.000349270
      4        6          -0.001178425   -0.000224927    0.000937694
      5        1           0.000778813   -0.000460710   -0.000261808
      6        6           0.000337313   -0.000347767   -0.002336328
      7        6           0.000020250    0.000469246    0.001299563
      8        1          -0.000255518    0.000033429    0.000025223
      9        6           0.003216725   -0.000058551   -0.001300283
     10        1          -0.000733923    0.000059772    0.000783430
     11        7          -0.004199362    0.000143526    0.000406969
     12        6           0.002359204    0.000538018    0.001233676
     13        1          -0.000883741   -0.000262196   -0.000667459
     14        6           0.000442153   -0.000466706   -0.000138434
     15        1          -0.000274606   -0.000090184   -0.000147099
 -------------------------------------------------------------------
 Cartesian Forces:  Max     0.004199362 RMS     0.001073696

 GradGradGradGradGradGradGradGradGradGradGradGradGradGradGradGradGradGrad
 Berny optimization.
 Using GEDIIS/GDIIS optimizer.
 FormGI is forming the generalized inverse of G from B-inverse, IUseBI=4.
 Internal  Forces:  Max     0.001948945 RMS     0.000629409
 Search for a local minimum.
 Step number   2 out of a maximum of   75
 All quantities printed in internal units (Hartrees-Bohrs-Radians)
 Mixed Optimization -- En-DIIS/RFO-DIIS
 Update second derivatives using D2CorX and points    1    2
 DE= -1.02D-03 DEPred=-9.80D-04 R= 1.04D+00
 TightC=F SS=  1.41D+00  RLast= 1.21D-01 DXNew= 5.0454D-01 3.6274D-01
 Trust test= 1.04D+00 RLast= 1.21D-01 DXMaxT set to 3.63D-01
 ITU=  1  0
 Use linear search instead of GDIIS.
     Eigenvalues ---    0.01150   0.01858   0.02050   0.02167   0.02200
     Eigenvalues ---    0.02213   0.02256   0.02296   0.02313   0.02341
     Eigenvalues ---    0.02892   0.02959   0.14391   0.16000   0.16000
     Eigenvalues ---    0.16000   0.16000   0.16000   0.16397   0.21581
     Eigenvalues ---    0.22011   0.22538   0.24021   0.25476   0.35056
     Eigenvalues ---    0.35235   0.35264   0.35296   0.35382   0.35400
     Eigenvalues ---    0.35515   0.36480   0.43056   0.43707   0.46798
     Eigenvalues ---    0.48471   0.51771   0.54571   0.58313
 RFO step:  Lambda=-1.45785913D-04 EMin= 1.14974352D-02
 Quartic linear search produced a step of  0.06238.
 Iteration  1 RMS(Cart)=  0.01405435 RMS(Int)=  0.00008467
 Iteration  2 RMS(Cart)=  0.00012186 RMS(Int)=  0.00000884
 Iteration  3 RMS(Cart)=  0.00000001 RMS(Int)=  0.00000884
 Variable       Old X    -DE/DX   Delta X   Delta X   Delta X     New X
                                 (Linear)    (Quad)   (Total)
    R1        2.04883  -0.00019  -0.00018  -0.00060  -0.00078   2.04805
    R2        2.04928   0.00031  -0.00005   0.00093   0.00088   2.05016
    R3        2.51285   0.00027  -0.00113   0.00027  -0.00086   2.51199
    R4        2.05709  -0.00004   0.00008  -0.00011  -0.00003   2.05705
    R5        2.80618   0.00003   0.00179   0.00045   0.00225   2.80842
    R6        2.63638   0.00109  -0.00015   0.00266   0.00251   2.63889
    R7        2.64161  -0.00018   0.00023  -0.00022   0.00000   2.64161
    R8        2.04698   0.00015  -0.00009   0.00043   0.00034   2.04732
    R9        2.63088   0.00006   0.00073   0.00033   0.00106   2.63194
   R10        2.05202   0.00022  -0.00003   0.00067   0.00064   2.05266
   R11        2.52947  -0.00164  -0.00121  -0.00353  -0.00473   2.52474
   R12        2.52975  -0.00098  -0.00125  -0.00231  -0.00355   2.52619
   R13        2.05214   0.00014  -0.00002   0.00042   0.00039   2.05254
   R14        2.63039  -0.00029   0.00064  -0.00056   0.00008   2.63047
   R15        2.04663   0.00028  -0.00024   0.00079   0.00055   2.04718
    A1        2.04561  -0.00000   0.00036   0.00006   0.00042   2.04603
    A2        2.11227   0.00052   0.00077   0.00360   0.00437   2.11663
    A3        2.12530  -0.00052  -0.00112  -0.00364  -0.00478   2.12052
    A4        2.07936   0.00146   0.00015   0.00866   0.00880   2.08816
    A5        2.17220  -0.00116  -0.00023  -0.00565  -0.00587   2.16632
    A6        2.03162  -0.00030   0.00009  -0.00300  -0.00292   2.02871
    A7        2.12960  -0.00164  -0.00060  -0.00753  -0.00814   2.12146
    A8        2.10923   0.00114   0.00189   0.00480   0.00668   2.11591
    A9        2.04433   0.00049  -0.00124   0.00270   0.00145   2.04579
   A10        2.10555  -0.00007  -0.00130  -0.00140  -0.00270   2.10285
   A11        2.08018  -0.00029   0.00050  -0.00049   0.00002   2.08020
   A12        2.09744   0.00036   0.00079   0.00189   0.00268   2.10012
   A13        2.10151  -0.00050  -0.00050  -0.00443  -0.00494   2.09657
   A14        2.16496  -0.00110   0.00015  -0.00517  -0.00502   2.15993
   A15        2.01670   0.00160   0.00034   0.00966   0.00999   2.02668
   A16        2.03295   0.00195  -0.00001   0.00770   0.00769   2.04064
   A17        2.01705   0.00138   0.00041   0.00894   0.00935   2.02640
   A18        2.16199  -0.00044   0.00003  -0.00233  -0.00230   2.15969
   A19        2.10414  -0.00094  -0.00043  -0.00660  -0.00704   2.09710
   A20        2.08196  -0.00062   0.00058  -0.00242  -0.00184   2.08012
   A21        2.10362   0.00015  -0.00117  -0.00005  -0.00121   2.10241
   A22        2.09759   0.00047   0.00059   0.00246   0.00305   2.10064
    D1       -0.00226   0.00005  -0.00086   0.00130   0.00044  -0.00182
    D2        3.13468   0.00008   0.00022   0.00316   0.00338   3.13806
    D3        3.13534   0.00025  -0.00233   0.00868   0.00634  -3.14150
    D4       -0.01090   0.00029  -0.00126   0.01054   0.00928  -0.00162
    D5        1.52977  -0.00021  -0.00256  -0.01982  -0.02238   1.50739
    D6       -1.61987  -0.00028  -0.00032  -0.02344  -0.02374  -1.64360
    D7       -1.61636  -0.00018  -0.00151  -0.01797  -0.01950  -1.63586
    D8        1.51719  -0.00025   0.00073  -0.02159  -0.02086   1.49633
    D9       -0.00967   0.00000  -0.00009  -0.00040  -0.00050  -0.01017
   D10        3.13672   0.00001   0.00088   0.00019   0.00104   3.13777
   D11        3.13969   0.00007  -0.00233   0.00308   0.00077   3.14046
   D12        0.00289   0.00007  -0.00136   0.00367   0.00232   0.00521
   D13       -3.13657   0.00001  -0.00074   0.00014  -0.00061  -3.13718
   D14        0.01191   0.00002  -0.00101   0.00082  -0.00020   0.01172
   D15       -0.00265  -0.00007   0.00141  -0.00335  -0.00195  -0.00460
   D16       -3.13735  -0.00006   0.00114  -0.00268  -0.00154  -3.13888
   D17        3.13158   0.00014  -0.00034   0.00623   0.00587   3.13745
   D18       -0.00187  -0.00006   0.00048  -0.00298  -0.00249  -0.00436
   D19       -0.00524   0.00015   0.00061   0.00682   0.00743   0.00219
   D20       -3.13869  -0.00005   0.00144  -0.00239  -0.00093  -3.13962
   D21        0.00043   0.00004   0.00035   0.00171   0.00208   0.00252
   D22       -3.13337  -0.00015   0.00114  -0.00703  -0.00591  -3.13929
   D23        3.13707   0.00001  -0.00065   0.00067   0.00001   3.13708
   D24       -0.00016  -0.00003  -0.00030  -0.00137  -0.00168  -0.00184
   D25        0.00133   0.00005  -0.00059   0.00230   0.00170   0.00303
   D26        3.13606   0.00003  -0.00034   0.00162   0.00127   3.13733
   D27       -3.13569  -0.00000  -0.00022   0.00013  -0.00009  -3.13578
   D28       -0.00097  -0.00001   0.00003  -0.00055  -0.00053  -0.00149
         Item               Value     Threshold  Converged?
 Maximum Force            0.001949     0.000450     NO 
 RMS     Force            0.000629     0.000300     NO 
 Maximum Displacement     0.045497     0.001800     NO 
 RMS     Displacement     0.014078     0.001200     NO 
 Predicted change in Energy=-7.664582D-05
 GradGradGradGradGradGradGradGradGradGradGradGradGradGradGradGradGradGrad

                          Input orientation:                          
 ---------------------------------------------------------------------
 Center     Atomic      Atomic             Coordinates (Angstroms)
 Number     Number       Type             X           Y           Z
 ---------------------------------------------------------------------
      1          1           0        1.032655   -0.050520   -0.846335
      2          6           0        2.115623   -0.011102   -0.860817
      3          1           0        2.574291    0.924180   -1.163917
      4          6           0        2.849169   -1.066900   -0.522859
      5          1           0        2.357280   -1.990661   -0.223455
      6          6           0        4.335218   -1.084471   -0.524273
      7          6           0        5.072075   -0.655914    0.581813
      8          1           0        4.569217   -0.289537    1.468743
      9          6           0        6.463196   -0.697798    0.528774
     10          1           0        7.051441   -0.364538    1.378937
     11          7           0        7.152968   -1.133755   -0.529120
     12          6           0        6.444812   -1.545282   -1.585627
     13          1           0        7.018828   -1.892800   -2.439718
     14          6           0        5.053617   -1.542601   -1.632464
     15          1           0        4.535010   -1.885102   -2.519781
 ---------------------------------------------------------------------
                    Distance matrix (angstroms):
                    1          2          3          4          5
     1  H    0.000000
     2  C    1.083782   0.000000
     3  H    1.851361   1.084896   0.000000
     4  C    2.106511   1.329290   2.109718   0.000000
     5  H    2.430382   2.093628   3.070481   1.088546   0.000000
     6  C    3.475587   2.488370   2.746760   1.486154   2.196341
     7  C    4.327010   3.352248   3.432666   2.516052   3.130514
     8  H    4.233672   3.394775   3.519054   2.743963   3.263437
     9  C    5.639209   4.615616   4.540881   3.781979   4.369885
    10  H    6.424658   5.431732   5.307709   4.665751   5.219874
    11  N    6.223525   5.171578   5.059877   4.304323   4.881224
    12  C    5.663242   4.649831   4.610533   3.779811   4.331488
    13  H    6.462750   5.484080   5.414513   4.662887   5.162502
    14  C    4.360326   3.401872   3.528683   2.513385   3.075109
    15  H    4.293321   3.481015   3.684406   2.738469   3.166507
                    6          7          8          9         10
     6  C    0.000000
     7  C    1.396440   0.000000
     8  H    2.158422   1.083394   0.000000
     9  C    2.405559   1.392762   2.153457   0.000000
    10  H    3.393873   2.153648   2.484981   1.086219   0.000000
    11  N    2.818185   2.406787   3.373416   1.336033   2.059778
    12  C    2.406076   2.715359   3.797884   2.277994   3.248199
    13  H    3.394715   3.801235   4.883351   3.247877   4.113244
    14  C    1.397880   2.385284   3.379689   2.715062   3.801010
    15  H    2.159393   3.379234   4.295965   3.797536   4.883087
                   11         12         13         14         15
    11  N    0.000000
    12  C    1.336805   0.000000
    13  H    2.060225   1.086156   0.000000
    14  C    2.406616   1.391986   2.153219   0.000000
    15  H    3.373567   2.153012   2.485120   1.083323   0.000000
 Stoichiometry    C7H7N
 Framework group  C1[X(C7H7N)]
 Deg. of freedom    39
 Full point group                 C1      NOp   1
 Largest Abelian subgroup         C1      NOp   1
 Largest concise Abelian subgroup C1      NOp   1
                         Standard orientation:                         
 ---------------------------------------------------------------------
 Center     Atomic      Atomic             Coordinates (Angstroms)
 Number     Number       Type             X           Y           Z
 ---------------------------------------------------------------------
      1          1           0        3.946941    0.005575    0.307677
      2          6           0        2.884863    0.031501    0.521923
      3          1           0        2.590358    0.119322    1.562381
      4          6           0        1.982527   -0.043514   -0.451306
      5          1           0        2.311766   -0.131090   -1.485165
      6          6           0        0.513218   -0.018283   -0.229613
      7          6           0       -0.192115    1.183810   -0.142877
      8          1           0        0.325270    2.131939   -0.227169
      9          6           0       -1.569431    1.149932    0.061181
     10          1           0       -2.132558    2.075854    0.134856
     11          7           0       -2.275192    0.021453    0.177030
     12          6           0       -1.597542   -1.127687    0.091506
     13          1           0       -2.183549   -2.036680    0.191825
     14          6           0       -0.222210   -1.201061   -0.110238
     15          1           0        0.272258   -2.163278   -0.167068
 ---------------------------------------------------------------------
 Rotational constants (GHZ):           5.2983944           1.5162649           1.2502317
 Standard basis: 6-311++G(d,p) (5D, 7F)
 There are   233 symmetry adapted cartesian basis functions of A   symmetry.
 There are   225 symmetry adapted basis functions of A   symmetry.
   225 basis functions,   351 primitive gaussians,   233 cartesian basis functions
    28 alpha electrons       28 beta electrons
       nuclear repulsion energy       322.7632191623 Hartrees.
 NAtoms=   15 NActive=   15 NUniq=   15 SFac= 1.00D+00 NAtFMM=   60 NAOKFM=F Big=F
 Integral buffers will be    131072 words long.
 Raffenetti 2 integral format.
 Two-electron integral symmetry is turned on.
 Nuclear repulsion after empirical dispersion term =      322.7375922506 Hartrees.
 One-electron integrals computed using PRISM.
 NBasis=   225 RedAO= T EigKep=  4.75D-06  NBF=   225
 NBsUse=   225 1.00D-06 EigRej= -1.00D+00 NBFU=   225
 Initial guess from the checkpoint file:  "4VP-2.chk"
 B after Tr=     0.000000   -0.000000    0.000000
         Rot=    0.999989    0.004320    0.000169    0.001799 Ang=   0.54 deg.
 ExpMin= 3.60D-02 ExpMax= 6.29D+03 ExpMxC= 9.49D+02 IAcc=3 IRadAn=         5 AccDes= 0.00D+00
 Harris functional with IExCor=  402 and IRadAn=       5 diagonalized for initial guess.
 HarFok:  IExCor=  402 AccDes= 0.00D+00 IRadAn=         5 IDoV= 1 UseB2=F ITyADJ=14
 ICtDFT=  3500011 ScaDFX=  1.000000  1.000000  1.000000  1.000000
 FoFCou: FMM=F IPFlag=           0 FMFlag=      100000 FMFlg1=           0
         NFxFlg=           0 DoJE=T BraDBF=F KetDBF=T FulRan=T
         wScrn=  0.000000 ICntrl=       500 IOpCl=  0 I1Cent=   200000004 NGrid=           0
         NMat0=    1 NMatS0=      1 NMatT0=    0 NMatD0=    1 NMtDS0=    0 NMtDT0=    0
 Petite list used in FoFCou.
 Requested convergence on RMS density matrix=1.00D-08 within 128 cycles.
 Requested convergence on MAX density matrix=1.00D-06.
 Requested convergence on             energy=1.00D-06.
 No special actions if energy rises.
 SCF Done:  E(RB3LYP) =  -325.791075448     A.U. after   10 cycles
            NFock= 10  Conv=0.87D-08     -V/T= 2.0045
 Calling FoFJK, ICntrl=      2127 FMM=F ISym2X=0 I1Cent= 0 IOpClX= 0 NMat=1 NMatS=1 NMatT=0.
 ***** Axes restored to original set *****
 -------------------------------------------------------------------
 Center     Atomic                   Forces (Hartrees/Bohr)
 Number     Number              X              Y              Z
[...]
 **** Fit       0.004565
 **** Fit       0.005917
 **** Fit       0.007988
 **** Fit       0.011212
 **** Fit       0.016216
 **** Fit       0.016215
 **** Fit       0.011211
 **** Fit       0.007988
 **** Fit       0.005917
 **** Fit       0.004565
 **** Fit       0.003664
 **** Fit       0.004550
 **** Fit       0.005782
 **** Fit       0.007592
 **** Fit       0.010261
 **** Fit       0.014137
 **** Fit       0.019402
 **** Fit       0.019403
 **** Fit       0.014138
 **** Fit       0.010262
 **** Fit       0.007593
 **** Fit       0.005783
 **** Fit       0.004551
 **** Fit       0.004583
 **** Fit       0.005687
 **** Fit       0.007218
 **** Fit       0.009318
 **** Fit       0.012103
 **** Fit       0.015508
 **** Fit       0.018982
 **** Fit       0.018984
 **** Fit       0.015510
 **** Fit       0.012105
 **** Fit       0.009321
 **** Fit       0.007220
 **** Fit       0.005689
 **** Fit       0.004585
 **** Fit       0.004660
 **** Fit       0.005650
 **** Fit       0.006941
 **** Fit       0.008584
 **** Fit       0.010573
 **** Fit       0.012765
 **** Fit       0.014784
 **** Fit       0.016041
 **** Fit       0.016042
 **** Fit       0.014785
 **** Fit       0.012768
 **** Fit       0.010576
 **** Fit       0.008587
 **** Fit       0.006944
 **** Fit       0.005653
 **** Fit       0.004663
 **** Fit       0.005662
 **** Fit       0.006770
 **** Fit       0.008089
 **** Fit       0.009571
 **** Fit       0.011076
 **** Fit       0.012356
 **** Fit       0.013108
 **** Fit       0.013109
 **** Fit       0.012358
 **** Fit       0.011079
 **** Fit       0.009575
 **** Fit       0.008093
 **** Fit       0.006773
 **** Fit       0.005666
 **** Fit       0.006669
 **** Fit       0.007770
 **** Fit       0.008939
 **** Fit       0.010061
 **** Fit       0.010968
 **** Fit       0.011482
 **** Fit       0.011483
 **** Fit       0.010970
 **** Fit       0.010064
 **** Fit       0.008943
 **** Fit       0.007774
 **** Fit       0.006673
 **** Fit       0.007537
 **** Fit       0.008505
 **** Fit       0.009399
 **** Fit       0.010099
 **** Fit       0.010487
 **** Fit       0.010488
 **** Fit       0.010101
 **** Fit       0.009402
 **** Fit       0.008509
 **** Fit       0.007542
 **** Fit       0.008143
 **** Fit       0.008882
 **** Fit       0.009450
 **** Fit       0.009760
 **** Fit       0.009761
 **** Fit       0.009452
 **** Fit       0.008885
 **** Fit       0.008147
 **** Fit       0.008404
 **** Fit       0.008872
 **** Fit       0.009125
 **** Fit       0.009126
 **** Fit       0.008874
 **** Fit       0.008407
 **** Fit       0.008516
 **** Fit       0.008516
 **** Fit       0.009277
 **** Fit       0.009277
 **** Fit       0.008519
 **** Fit       0.009341
 **** Fit       0.009976
 **** Fit       0.010325
 **** Fit       0.010324
 **** Fit       0.009975
 **** Fit       0.009339
 **** Fit       0.008516
 **** Fit       0.008128
 **** Fit       0.009276
 **** Fit       0.010360
 **** Fit       0.011222
 **** Fit       0.011704
 **** Fit       0.011704
 **** Fit       0.011220
 **** Fit       0.010357
 **** Fit       0.009273
 **** Fit       0.008124
 **** Fit       0.007362
 **** Fit       0.008718
 **** Fit       0.010201
 **** Fit       0.011664
 **** Fit       0.012875
 **** Fit       0.013571
 **** Fit       0.013571
 **** Fit       0.012873
 **** Fit       0.011661
 **** Fit       0.010197
 **** Fit       0.008714
 **** Fit       0.007358
 **** Fit       0.006346
 **** Fit       0.007710
 **** Fit       0.009379
 **** Fit       0.011305
 **** Fit       0.013312
 **** Fit       0.015055
 **** Fit       0.016092
 **** Fit       0.016092
 **** Fit       0.015053
 **** Fit       0.013309
 **** Fit       0.011302
 **** Fit       0.009375
 **** Fit       0.007706
 **** Fit       0.006342
 **** Fit       0.006468
 **** Fit       0.008040
 **** Fit       0.010062
 **** Fit       0.012531
 **** Fit       0.015261
 **** Fit       0.017771
 **** Fit       0.019326
 **** Fit       0.019325
 **** Fit       0.017769
 **** Fit       0.015258
 **** Fit       0.012527
 **** Fit       0.010058
 **** Fit       0.008036
 **** Fit       0.006464
 **** Fit       0.005262
 **** Fit       0.006545
 **** Fit       0.008297
 **** Fit       0.010653
 **** Fit       0.013684
 **** Fit       0.017239
 **** Fit       0.020696
 **** Fit       0.022930
 **** Fit       0.022930
 **** Fit       0.020694
 **** Fit       0.017236
 **** Fit       0.013681
 **** Fit       0.010650
 **** Fit       0.008294
 **** Fit       0.006542
 **** Fit       0.005259
 **** Fit       0.005224
 **** Fit       0.006554
 **** Fit       0.008413
 **** Fit       0.010990
 **** Fit       0.014436
 **** Fit       0.018660
 **** Fit       0.022952
 **** Fit       0.022951
 **** Fit       0.018658
 **** Fit       0.014434
 **** Fit       0.010988
 **** Fit       0.008411
 **** Fit       0.006551
 **** Fit       0.005222
 **** Fit       0.005166
 **** Fit       0.006485
 **** Fit       0.008341
 **** Fit       0.010939
 **** Fit       0.014460
 **** Fit       0.018852
 **** Fit       0.023397
 **** Fit       0.023396
 **** Fit       0.018851
 **** Fit       0.014459
 **** Fit       0.010938
 **** Fit       0.008340
 **** Fit       0.006483
 **** Fit       0.005165
 **** Fit       0.005096
 **** Fit       0.006349
 **** Fit       0.008090
 **** Fit       0.010490
 **** Fit       0.013692
 **** Fit       0.017618
 **** Fit       0.021622
 **** Fit       0.021621
 **** Fit       0.017618
 **** Fit       0.013691
 **** Fit       0.010490
 **** Fit       0.008090
 **** Fit       0.006349
 **** Fit       0.005096
 **** Fit       0.005030
 **** Fit       0.006179
 **** Fit       0.007728
 **** Fit       0.009787
 **** Fit       0.012417
 **** Fit       0.015495
 **** Fit       0.018497
 **** Fit       0.020445
 **** Fit       0.020445
 **** Fit       0.018497
 **** Fit       0.015496
 **** Fit       0.012417
 **** Fit       0.009787
 **** Fit       0.007729
 **** Fit       0.006180
 **** Fit       0.005030
 **** Fit       0.004979
 **** Fit       0.006011
 **** Fit       0.007345
 **** Fit       0.009029
 **** Fit       0.011057
 **** Fit       0.013283
 **** Fit       0.015323
 **** Fit       0.016589
 **** Fit       0.016590
 **** Fit       0.015324
 **** Fit       0.013284
 **** Fit       0.011059
 **** Fit       0.009030
 **** Fit       0.007346
 **** Fit       0.006013
 **** Fit       0.004980
 **** Fit       0.005871
 **** Fit       0.007006
 **** Fit       0.008364
 **** Fit       0.009900
 **** Fit       0.011476
 **** Fit       0.012833
 **** Fit       0.013638
 **** Fit       0.013638
 **** Fit       0.012834
 **** Fit       0.011478
 **** Fit       0.009902
 **** Fit       0.008366
 **** Fit       0.007008
 **** Fit       0.005873
 **** Fit       0.006736
 **** Fit       0.007843
 **** Fit       0.009026
 **** Fit       0.010173
 **** Fit       0.011111
 **** Fit       0.011645
 **** Fit       0.011646
 **** Fit       0.011112
 **** Fit       0.010175
 **** Fit       0.009029
 **** Fit       0.007845
 **** Fit       0.006739
 **** Fit       0.007448
 **** Fit       0.008393
 **** Fit       0.009269
 **** Fit       0.009958
 **** Fit       0.010341
 **** Fit       0.010341
 **** Fit       0.009959
 **** Fit       0.009271
 **** Fit       0.008396
 **** Fit       0.007451
 **** Fit       0.007916
 **** Fit       0.008617
 **** Fit       0.009154
 **** Fit       0.009447
 **** Fit       0.009447
 **** Fit       0.009155
 **** Fit       0.008619
 **** Fit       0.007919
 **** Fit       0.008770
 **** Fit       0.008770
 **** Fit       0.009059
 **** Fit       0.009327
 **** Fit       0.009326
 **** Fit       0.009057
 **** Fit       0.008565
 **** Fit       0.009398
 **** Fit       0.010045
 **** Fit       0.010401
 **** Fit       0.010401
 **** Fit       0.010044
 **** Fit       0.009396
 **** Fit       0.008562
 **** Fit       0.008175
 **** Fit       0.009316
 **** Fit       0.010394
 **** Fit       0.011255
 **** Fit       0.011738
 **** Fit       0.011738
 **** Fit       0.011254
 **** Fit       0.010392
 **** Fit       0.009313
 **** Fit       0.008172
 **** Fit       0.007418
 **** Fit       0.008727
 **** Fit       0.010150
 **** Fit       0.011546
 **** Fit       0.012697
 **** Fit       0.013357
 **** Fit       0.013356
 **** Fit       0.012695
 **** Fit       0.011544
 **** Fit       0.010147
 **** Fit       0.008724
 **** Fit       0.007415
 **** Fit       0.006440
 **** Fit       0.007723
 **** Fit       0.009262
 **** Fit       0.011000
 **** Fit       0.012773
 **** Fit       0.014286
 **** Fit       0.015175
 **** Fit       0.015174
 **** Fit       0.014284
 **** Fit       0.012771
 **** Fit       0.010997
 **** Fit       0.009259
 **** Fit       0.007721
 **** Fit       0.006437
 **** Fit       0.006543
 **** Fit       0.007954
 **** Fit       0.009696
 **** Fit       0.011732
 **** Fit       0.013885
 **** Fit       0.015782
 **** Fit       0.016922
 **** Fit       0.016922
 **** Fit       0.015781
 **** Fit       0.013883
 **** Fit       0.011730
 **** Fit       0.009694
 **** Fit       0.007951
 **** Fit       0.006541
 **** Fit       0.006577
 **** Fit       0.008061
 **** Fit       0.009931
 **** Fit       0.012168
 **** Fit       0.014593
 **** Fit       0.016782
 **** Fit       0.018122
 **** Fit       0.018121
 **** Fit       0.016781
 **** Fit       0.014592
 **** Fit       0.012166
 **** Fit       0.009929
 **** Fit       0.008059
 **** Fit       0.006575
 **** Fit       0.006531
 **** Fit       0.008014
 **** Fit       0.009893
 **** Fit       0.012158
 **** Fit       0.014635
 **** Fit       0.016891
 **** Fit       0.018281
 **** Fit       0.018281
 **** Fit       0.016890
 **** Fit       0.014634
 **** Fit       0.012156
 **** Fit       0.009892
 **** Fit       0.008013
 **** Fit       0.006530
 **** Fit       0.006413
 **** Fit       0.007819
 **** Fit       0.009582
 **** Fit       0.011683
 **** Fit       0.013957
 **** Fit       0.016010
 **** Fit       0.017267
 **** Fit       0.017267
 **** Fit       0.016010
 **** Fit       0.013957
 **** Fit       0.011683
 **** Fit       0.009581
 **** Fit       0.007819
 **** Fit       0.006413
 **** Fit       0.006246
 **** Fit       0.007520
 **** Fit       0.009077
 **** Fit       0.010884
 **** Fit       0.012784
 **** Fit       0.014457
 **** Fit       0.015463
 **** Fit       0.015463
 **** Fit       0.014457
 **** Fit       0.012784
 **** Fit       0.010884
 **** Fit       0.009078
 **** Fit       0.007520
 **** Fit       0.006247
 **** Fit       0.006060
 **** Fit       0.007178
 **** Fit       0.008498
 **** Fit       0.009971
 **** Fit       0.011461
 **** Fit       0.012726
 **** Fit       0.013468
 **** Fit       0.013468
 **** Fit       0.012726
 **** Fit       0.011461
 **** Fit       0.009972
 **** Fit       0.008499
 **** Fit       0.007179
 **** Fit       0.006061
 **** Fit       0.006846
 **** Fit       0.007943
 **** Fit       0.009116
 **** Fit       0.010253
 **** Fit       0.011182
 **** Fit       0.011713
 **** Fit       0.011713
 **** Fit       0.011183
 **** Fit       0.010254
 **** Fit       0.009117
 **** Fit       0.007944
 **** Fit       0.006847
 **** Fit       0.006550
 **** Fit       0.007462
 **** Fit       0.008399
 **** Fit       0.009271
 **** Fit       0.009960
 **** Fit       0.010344
 **** Fit       0.010345
 **** Fit       0.009961
 **** Fit       0.009273
 **** Fit       0.008401
 **** Fit       0.007464
 **** Fit       0.006552
 **** Fit       0.007824
 **** Fit       0.008510
 **** Fit       0.009037
 **** Fit       0.009326
 **** Fit       0.009326
 **** Fit       0.009038
 **** Fit       0.008512
 **** Fit       0.007826
 **** Fit       0.007915
 **** Fit       0.008333
 **** Fit       0.008559
 **** Fit       0.008559
 **** Fit       0.008334
 **** Fit       0.007917
 **** Fit       0.008480
 **** Fit       0.008964
 **** Fit       0.009226
 **** Fit       0.009226
 **** Fit       0.008963
 **** Fit       0.008479
 **** Fit       0.008434
 **** Fit       0.009227
 **** Fit       0.009841
 **** Fit       0.010179
 **** Fit       0.010178
 **** Fit       0.009840
 **** Fit       0.009226
 **** Fit       0.008432
 **** Fit       0.008006
 **** Fit       0.009053
 **** Fit       0.010031
 **** Fit       0.010806
 **** Fit       0.011238
 **** Fit       0.011238
 **** Fit       0.010805
 **** Fit       0.010030
 **** Fit       0.009051
 **** Fit       0.008004
 **** Fit       0.007254
 **** Fit       0.008413
 **** Fit       0.009643
 **** Fit       0.010824
 **** Fit       0.011779
 **** Fit       0.012320
 **** Fit       0.012319
 **** Fit       0.011778
 **** Fit       0.010822
 **** Fit       0.009641
 **** Fit       0.008411
 **** Fit       0.007252
 **** Fit       0.007446
 **** Fit       0.008728
 **** Fit       0.010121
 **** Fit       0.011487
 **** Fit       0.012614
 **** Fit       0.013260
 **** Fit       0.013260
 **** Fit       0.012613
 **** Fit       0.011486
 **** Fit       0.010119
 **** Fit       0.008727
 **** Fit       0.007444
 **** Fit       0.007536
 **** Fit       0.008893
 **** Fit       0.010388
 **** Fit       0.011876
 **** Fit       0.013121
 **** Fit       0.013841
 **** Fit       0.013841
 **** Fit       0.013120
 **** Fit       0.011875
 **** Fit       0.010386
 **** Fit       0.008892
 **** Fit       0.007535
 **** Fit       0.006346
 **** Fit       0.007506
 **** Fit       0.008867
 **** Fit       0.010372
 **** Fit       0.011879
 **** Fit       0.013144
 **** Fit       0.013879
 **** Fit       0.013879
 **** Fit       0.013144
 **** Fit       0.011879
 **** Fit       0.010372
 **** Fit       0.008866
 **** Fit       0.007505
 **** Fit       0.006345
 **** Fit       0.007359
 **** Fit       0.008651
 **** Fit       0.010071
 **** Fit       0.011481
 **** Fit       0.012659
 **** Fit       0.013341
 **** Fit       0.013341
 **** Fit       0.012659
 **** Fit       0.011481
 **** Fit       0.010070
 **** Fit       0.008651
 **** Fit       0.007358
 **** Fit       0.007122
 **** Fit       0.008292
 **** Fit       0.009554
 **** Fit       0.010785
 **** Fit       0.011798
 **** Fit       0.012379
 **** Fit       0.012379
 **** Fit       0.011798
 **** Fit       0.010785
 **** Fit       0.009554
 **** Fit       0.008292
 **** Fit       0.007123
 **** Fit       0.006838
 **** Fit       0.007858
 **** Fit       0.008931
 **** Fit       0.009953
 **** Fit       0.010776
 **** Fit       0.011240
 **** Fit       0.011240
 **** Fit       0.010776
 **** Fit       0.009954
 **** Fit       0.008932
 **** Fit       0.007859
 **** Fit       0.006838
 **** Fit       0.007415
 **** Fit       0.008305
 **** Fit       0.009130
 **** Fit       0.009778
 **** Fit       0.010138
 **** Fit       0.010138
 **** Fit       0.009779
 **** Fit       0.009131
 **** Fit       0.008306
 **** Fit       0.007415
 **** Fit       0.007736
 **** Fit       0.008398
 **** Fit       0.008907
 **** Fit       0.009185
 **** Fit       0.009185
 **** Fit       0.008907
 **** Fit       0.008399
 **** Fit       0.007737
 **** Fit       0.007781
 **** Fit       0.008185
 **** Fit       0.008403
 **** Fit       0.008403
 **** Fit       0.008186
 **** Fit       0.007782
 **** Fit       0.008641
 **** Fit       0.008880
 **** Fit       0.008880
 **** Fit       0.008640
 **** Fit       0.008766
 **** Fit       0.009300
 **** Fit       0.009592
 **** Fit       0.009592
 **** Fit       0.009299
 **** Fit       0.008765
 **** Fit       0.008485
 **** Fit       0.009293
 **** Fit       0.009923
 **** Fit       0.010269
 **** Fit       0.010269
 **** Fit       0.009922
 **** Fit       0.009292
 **** Fit       0.008484
 **** Fit       0.007832
 **** Fit       0.008806
 **** Fit       0.009711
 **** Fit       0.010423
 **** Fit       0.010819
 **** Fit       0.010819
 **** Fit       0.010423
 **** Fit       0.009710
 **** Fit       0.008805
 **** Fit       0.007831
 **** Fit       0.007949
 **** Fit       0.008978
 **** Fit       0.009943
 **** Fit       0.010708
 **** Fit       0.011136
 **** Fit       0.011136
 **** Fit       0.010708
 **** Fit       0.009942
 **** Fit       0.008977
 **** Fit       0.007948
 **** Fit       0.007932
 **** Fit       0.008965
 **** Fit       0.009937
 **** Fit       0.010710
 **** Fit       0.011142
 **** Fit       0.011142
 **** Fit       0.010709
 **** Fit       0.009936
 **** Fit       0.008964
 **** Fit       0.007931
 **** Fit       0.007781
 **** Fit       0.008767
 **** Fit       0.009690
 **** Fit       0.010421
 **** Fit       0.010829
 **** Fit       0.010829
 **** Fit       0.010421
 **** Fit       0.009689
 **** Fit       0.008766
 **** Fit       0.007780
 **** Fit       0.007523
 **** Fit       0.008421
 **** Fit       0.009252
 **** Fit       0.009904
 **** Fit       0.010266
 **** Fit       0.010266
 **** Fit       0.009904
 **** Fit       0.009252
 **** Fit       0.008421
 **** Fit       0.007523
 **** Fit       0.007988
 **** Fit       0.008706
 **** Fit       0.009262
 **** Fit       0.009568
 **** Fit       0.009568
 **** Fit       0.009262
 **** Fit       0.008706
 **** Fit       0.007989
 **** Fit       0.007528
 **** Fit       0.008133
 **** Fit       0.008594
 **** Fit       0.008844
 **** Fit       0.008845
 **** Fit       0.008594
 **** Fit       0.008133
 **** Fit       0.007529
 **** Fit       0.007965
 **** Fit       0.008169
 **** Fit       0.008169
 **** Fit       0.007966
 **** Fit       0.008510
 **** Fit       0.008742
 **** Fit       0.008742
 **** Fit       0.008509
 **** Fit       0.008354
 **** Fit       0.008828
 **** Fit       0.009086
 **** Fit       0.009086
 **** Fit       0.008828
 **** Fit       0.008354
 **** Fit       0.008502
 **** Fit       0.009002
 **** Fit       0.009274
 **** Fit       0.009274
 **** Fit       0.009001
 **** Fit       0.008501
 **** Fit       0.008495
 **** Fit       0.008998
 **** Fit       0.009273
 **** Fit       0.009273
 **** Fit       0.008998
 **** Fit       0.008495
 **** Fit       0.008334
 **** Fit       0.008816
 **** Fit       0.009078
 **** Fit       0.009078
 **** Fit       0.008816
 **** Fit       0.008334
 **** Fit       0.008046
 **** Fit       0.008486
 **** Fit       0.008726
 **** Fit       0.008726
 **** Fit       0.008486
 **** Fit       0.008046
 **** Fit       0.008062
 **** Fit       0.008272
 **** Fit       0.008272
 **** Fit       0.008063
 -----------------------------------------------------------------
 Leave Link  602 at Thu Apr 21 16:37:38 2022, MaxMem=   104857600 cpu:               0.8 elap:               0.8
 (Enter /opt/ohpc/pub/libs/gaussian/g16-A.03/haswell/g16/l9999.exe)

 Test job not archived.
 1\1\GINC-CASCADEB027\SP\RB3LYP\6-311++G(d,p)\C7H7N1\MNG228\21-Apr-2022
 \0\\#P B3LYP/6-311++G(d,p) Geom=Allcheck SCF=Tight EmpiricalDispersion
 =GD3BJ Pop=CHELPG SP IOp(6/33=2)\\4VP geo opt\\0,1\H,0,0.9892833751,-0
 .1293954281,-0.515730913\C,0,2.0443430595,-0.1375635028,-0.2717811782\
 H,0,2.3518343598,0.4769406597,0.5665521468\C,0,2.9053984205,-0.8730343
 351,-0.9790465653\H,0,2.5246617391,-1.4651598934,-1.807325367\C,0,4.35
 46681069,-0.9787494729,-0.7613619906\C,0,5.0421111071,-0.2974607493,0.
 2527115907\H,0,4.5221328858,0.3562623934,0.9415824252\C,0,6.4148360911
 ,-0.4646663617,0.3753279136\H,0,6.958161472,0.05794075,1.1570953219\N,
 0,7.1485540805,-1.2491564014,-0.4247028623\C,0,6.4954730613,-1.8986631
 04,-1.3908568331\H,0,7.0984492246,-2.5323940898,-2.0347178034\C,0,5.12
 23287432,-1.7982088529,-1.5966825721\H,0,4.6531642737,-2.3534916117,-2
 .4011633131\\Version=ES64L-G16RevA.03\State=1-A\HF=-325.7971997\RMSD=2
 .681e-09\Dipole=-1.0147984,0.1113611,-0.1059014\Quadrupole=-2.7077925,
 0.4731899,2.2346026,-0.1455499,-0.1414763,4.1300344\PG=C01 [X(C7H7N1)]
 \\@


 "PERFECTION IS NOT AN ACCIDENT"
         --  EAGLE ELECTRIC MANUFACTURING CO.,INC. NY
 Job cpu time:       0 days  0 hours  1 minutes 33.0 seconds.
 Elapsed time:       0 days  0 hours  1 minutes 33.7 seconds.
 File lengths (MBytes):  RWF=    272 Int=      0 D2E=      0 Chk=     32 Scr=     32
 Normal termination of Gaussian 16 at Thu Apr 21 16:37:38 2022.
