 Entering Gaussian System, Link 0=g16
 Initial command:
 /opt/ohpc/pub/libs/gaussian/g16-A.03/haswell/g16/l1.exe "g16_scratch/Gau-301515.inp" -scrdir="g16_scratch/"
 Entering Link 1 = /opt/ohpc/pub/libs/gaussian/g16-A.03/haswell/g16/l1.exe PID=    301517.
  
 Copyright (c) 1988,1990,1992,1993,1995,1998,2003,2009,2016,
            Gaussian, Inc.  All Rights Reserved.
  
 This is part of the Gaussian(R) 16 program.  It is based on
 the Gaussian(R) 09 system (copyright 2009, Gaussian, Inc.),
 the Gaussian(R) 03 system (copyright 2003, Gaussian, Inc.),
 the Gaussian(R) 98 system (copyright 1998, Gaussian, Inc.),
 the Gaussian(R) 94 system (copyright 1995, Gaussian, Inc.),
 the Gaussian 92(TM) system (copyright 1992, Gaussian, Inc.),
 the Gaussian 90(TM) system (copyright 1990, Gaussian, Inc.),
 the Gaussian 88(TM) system (copyright 1988, Gaussian, Inc.),
 the Gaussian 86(TM) system (copyright 1986, Carnegie Mellon
 University), and the Gaussian 82(TM) system (copyright 1983,
 Carnegie Mellon University). Gaussian is a federally registered
 trademark of Gaussian, Inc.
  
 This software contains proprietary and confidential information,
 including trade secrets, belonging to Gaussian, Inc.
  
 This software is provided under written license and may be
 used, copied, transmitted, or stored only in accord with that
 written license.
  
 The following legend is applicable only to US Government
 contracts under FAR:
  
                    RESTRICTED RIGHTS LEGEND
  
 Use, reproduction and disclosure by the US Government is
 subject to restrictions as set forth in subparagraphs (a)
 and (c) of the Commercial Computer Software - Restricted
 Rights clause in FAR 52.227-19.
  
 Gaussian, Inc.
 340 Quinnipiac St., Bldg. 40, Wallingford CT 06492
  
  
 ---------------------------------------------------------------
 Warning -- This program may not be used in any manner that
 competes with the business of Gaussian, Inc. or will provide
 assistance to any competitor of Gaussian, Inc.  The licensee
 of this program is prohibited from giving any competitor of
 Gaussian, Inc. access to this program.  By using this program,
 the user acknowledges that Gaussian, Inc. is engaged in the
 business of creating and licensing software in the field of
 computational chemistry and represents and warrants to the
 licensee that it is not a competitor of Gaussian, Inc. and that
 it will not use this program in any manner prohibited above.
 ---------------------------------------------------------------
  

 Cite this work as:
 Gaussian 16, Revision A.03,
 M. J. Frisch, G. W. Trucks, H. B. Schlegel, G. E. Scuseria, 
 M. A. Robb, J. R. Cheeseman, G. Scalmani, V. Barone, 
 G. A. Petersson, H. Nakatsuji, X. Li, M. Caricato, A. V. Marenich, 
 J. Bloino, B. G. Janesko, R. Gomperts, B. Mennucci, H. P. Hratchian, 
 J. V. Ortiz, A. F. Izmaylov, J. L. Sonnenberg, D. Williams-Young, 
 F. Ding, F. Lipparini, F. Egidi, J. Goings, B. Peng, A. Petrone, 
 T. Henderson, D. Ranasinghe, V. G. Zakrzewski, J. Gao, N. Rega, 
 G. Zheng, W. Liang, M. Hada, M. Ehara, K. Toyota, R. Fukuda, 
 J. Hasegawa, M. Ishida, T. Nakajima, Y. Honda, O. Kitao, H. Nakai, 
 T. Vreven, K. Throssell, J. A. Montgomery, Jr., J. E. Peralta, 
 F. Ogliaro, M. J. Bearpark, J. J. Heyd, E. N. Brothers, K. N. Kudin, 
 V. N. Staroverov, T. A. Keith, R. Kobayashi, J. Normand, 
 K. Raghavachari, A. P. Rendell, J. C. Burant, S. S. Iyengar, 
 J. Tomasi, M. Cossi, J. M. Millam, M. Klene, C. Adamo, R. Cammi, 
 J. W. Ochterski, R. L. Martin, K. Morokuma, O. Farkas, 
 J. B. Foresman, and D. J. Fox, Gaussian, Inc., Wallingford CT, 2016.
 
 ******************************************
 Gaussian 16:  ES64L-G16RevA.03 25-Dec-2016
                21-Apr-2022 
 ******************************************
 %Mem=192GB
 %NProcShared=48
 Will use up to   48 processors via shared memory.
 %Chk=MAA-2.chk
 ---------------------------------------------------------------------
 #n B3LYP/6-311++G(d,p) Opt freq EmpiricalDispersion=GD3BJ IOp(6/33=2)
 ---------------------------------------------------------------------
 1/18=20,19=15,26=3,38=1/1,3;
 2/9=110,12=2,17=6,18=5,40=1/2;
 3/5=4,6=6,7=1111,11=2,25=1,30=1,71=1,74=-5,124=41/1,2,3;
 4//1;
 5/5=2,38=5/2;
 6/7=2,8=2,9=2,10=2,28=1,33=2/1;
 7//1,2,3,16;
 1/18=20,19=15,26=3/3(2);
 2/9=110/2;
 99//99;
 2/9=110/2;
 3/5=4,6=6,7=1111,11=2,25=1,30=1,71=1,74=-5,124=41/1,2,3;
 4/5=5,16=3,69=1/1;
 5/5=2,38=5/2;
 7//1,2,3,16;
 1/18=20,19=15,26=3/3(-5);
 2/9=110/2;
 6/7=2,8=2,9=2,10=2,19=2,28=1,33=2/1;
 99/9=1/99;
 -----------
 MAA geo opt
 -----------
 Symbolic Z-matrix:
 Charge =  0 Multiplicity = 1
 H                     1.2267    1.4957    1.7971 
 O                     2.1976    1.5724    1.8959 
 C                     2.6818    0.8023    0.9064 
 O                     1.9354    0.2112    0.1467 
 C                     4.1635    0.7634    0.8563 
 C                     4.8233    0.0446   -0.067 
 H                     5.9076    0.0228   -0.0953 
 H                     4.3053   -0.542    -0.8201 
 C                     4.8686    1.5753    1.8991 
 H                     4.6013    2.6334    1.8104 
 H                     4.6012    1.2296    2.9032 
 H                     5.9576    1.5011    1.8038 
 

 GradGradGradGradGradGradGradGradGradGradGradGradGradGradGradGradGradGrad
 Berny optimization.
 Initialization pass.
                           ----------------------------
                           !    Initial Parameters    !
                           ! (Angstroms and Degrees)  !
 --------------------------                            --------------------------
 ! Name  Definition              Value          Derivative Info.                !
 --------------------------------------------------------------------------------
 ! R1    R(1,2)                  0.9789         estimate D2E/DX2                !
 ! R2    R(2,3)                  1.3441         estimate D2E/DX2                !
 ! R3    R(3,4)                  1.2181         estimate D2E/DX2                !
 ! R4    R(3,5)                  1.4831         estimate D2E/DX2                !
 ! R5    R(5,6)                  1.3433         estimate D2E/DX2                !
 ! R6    R(5,9)                  1.4979         estimate D2E/DX2                !
 ! R7    R(6,7)                  1.0849         estimate D2E/DX2                !
 ! R8    R(6,8)                  1.0861         estimate D2E/DX2                !
 ! R9    R(9,10)                 1.0949         estimate D2E/DX2                !
 ! R10   R(9,11)                 1.0951         estimate D2E/DX2                !
 ! R11   R(9,12)                 1.0957         estimate D2E/DX2                !
 ! A1    A(1,2,3)              103.7742         estimate D2E/DX2                !
 ! A2    A(2,3,4)              121.0942         estimate D2E/DX2                !
 ! A3    A(2,3,5)              113.5662         estimate D2E/DX2                !
 ! A4    A(4,3,5)              125.3396         estimate D2E/DX2                !
 ! A5    A(3,5,6)              121.869          estimate D2E/DX2                !
 ! A6    A(3,5,9)              115.6297         estimate D2E/DX2                !
 ! A7    A(6,5,9)              122.5014         estimate D2E/DX2                !
 ! A8    A(5,6,7)              121.3047         estimate D2E/DX2                !
 ! A9    A(5,6,8)              122.0964         estimate D2E/DX2                !
 ! A10   A(7,6,8)              116.5989         estimate D2E/DX2                !
 ! A11   A(5,9,10)             110.6386         estimate D2E/DX2                !
 ! A12   A(5,9,11)             110.6264         estimate D2E/DX2                !
 ! A13   A(5,9,12)             111.7522         estimate D2E/DX2                !
 ! A14   A(10,9,11)            108.6465         estimate D2E/DX2                !
 ! A15   A(10,9,12)            107.5196         estimate D2E/DX2                !
 ! A16   A(11,9,12)            107.5216         estimate D2E/DX2                !
 ! D1    D(1,2,3,4)             -0.0026         estimate D2E/DX2                !
 ! D2    D(1,2,3,5)            179.9878         estimate D2E/DX2                !
 ! D3    D(2,3,5,6)            179.9907         estimate D2E/DX2                !
 ! D4    D(2,3,5,9)             -0.0081         estimate D2E/DX2                !
 ! D5    D(4,3,5,6)             -0.0195         estimate D2E/DX2                !
 ! D6    D(4,3,5,9)            179.9817         estimate D2E/DX2                !
 ! D7    D(3,5,6,7)            179.9924         estimate D2E/DX2                !
 ! D8    D(3,5,6,8)             -0.0112         estimate D2E/DX2                !
 ! D9    D(9,5,6,7)             -0.0089         estimate D2E/DX2                !
 ! D10   D(9,5,6,8)            179.9876         estimate D2E/DX2                !
 ! D11   D(3,5,9,10)           -60.2271         estimate D2E/DX2                !
 ! D12   D(3,5,9,11)            60.2254         estimate D2E/DX2                !
 ! D13   D(3,5,9,12)           179.9963         estimate D2E/DX2                !
 ! D14   D(6,5,9,10)           119.7741         estimate D2E/DX2                !
 ! D15   D(6,5,9,11)          -119.7734         estimate D2E/DX2                !
 ! D16   D(6,5,9,12)            -0.0025         estimate D2E/DX2                !
 --------------------------------------------------------------------------------
 Trust Radius=3.00D-01 FncErr=1.00D-07 GrdErr=1.00D-06 EigMax=2.50D+02 EigMin=1.00D-04
 Number of steps in this run=     53 maximum allowed number of steps=    100.
 GradGradGradGradGradGradGradGradGradGradGradGradGradGradGradGradGradGrad

                          Input orientation:                          
 ---------------------------------------------------------------------
 Center     Atomic      Atomic             Coordinates (Angstroms)
 Number     Number       Type             X           Y           Z
 ---------------------------------------------------------------------
      1          1           0        1.226700    1.495700    1.797100
      2          8           0        2.197600    1.572400    1.895900
      3          6           0        2.681800    0.802300    0.906400
      4          8           0        1.935400    0.211200    0.146700
      5          6           0        4.163500    0.763400    0.856300
      6          6           0        4.823300    0.044600   -0.067000
      7          1           0        5.907600    0.022800   -0.095300
      8          1           0        4.305300   -0.542000   -0.820100
      9          6           0        4.868600    1.575300    1.899100
     10          1           0        4.601300    2.633400    1.810400
     11          1           0        4.601200    1.229600    2.903200
     12          1           0        5.957600    1.501100    1.803800
 ---------------------------------------------------------------------
                    Distance matrix (angstroms):
                    1          2          3          4          5
     1  H    0.000000
     2  O    0.978923   0.000000
     3  C    1.841593   1.344103   0.000000
     4  O    2.208170   2.231886   1.218054   0.000000
     5  C    3.169568   2.366434   1.483057   2.402683   0.000000
     6  C    4.303033   3.616829   2.471364   2.900584   1.343314
     7  H    5.259414   4.486673   3.466527   3.984022   2.120357
     8  H    4.525454   4.036055   2.724646   2.668040   2.129435
     9  C    3.644198   2.671003   2.522910   3.679040   1.497925
    10  H    3.561245   2.628841   2.802610   3.967616   2.144499
    11  H    3.561112   2.628585   2.802480   3.967609   2.144463
    12  H    4.730908   3.761804   3.467638   4.537391   2.158878
                    6          7          8          9         10
     6  C    0.000000
     7  H    1.084888   0.000000
     8  H    1.086086   1.847079   0.000000
     9  C    2.492116   2.732656   3.492036   0.000000
    10  H    3.205589   3.486165   4.134043   1.094940   0.000000
    11  H    3.205564   3.486266   4.133895   1.095093   1.779007
    12  H    2.628292   2.407167   3.713382   1.095677   1.766832
                   11         12
    11  H    0.000000
    12  H    1.766979   0.000000
 Stoichiometry    C4H6O2
 Framework group  C1[X(C4H6O2)]
 Deg. of freedom    30
 Full point group                 C1      NOp   1
 Largest Abelian subgroup         C1      NOp   1
 Largest concise Abelian subgroup C1      NOp   1
                         Standard orientation:                         
 ---------------------------------------------------------------------
 Center     Atomic      Atomic             Coordinates (Angstroms)
 Number     Number       Type             X           Y           Z
 ---------------------------------------------------------------------
      1          1           0       -2.265151   -0.943085    0.000043
      2          8           0       -1.299755   -1.105262   -0.000141
      3          6           0       -0.767880    0.129130   -0.000048
      4          8           0       -1.476860    1.119586    0.000170
      5          6           0        0.715162    0.135754   -0.000004
      6          6           0        1.419300    1.279730   -0.000096
      7          1           0        2.504173    1.273891    0.000060
      8          1           0        0.938247    2.253471   -0.000386
      9          6           0        1.369119   -1.211881    0.000121
     10          1           0        1.079820   -1.781160    0.889570
     11          1           0        1.079678   -1.781212   -0.889437
     12          1           0        2.461947   -1.132905    0.000082
 ---------------------------------------------------------------------
 Rotational constants (GHZ):           5.3672631           3.5133479           2.1522403
 Standard basis: 6-311++G(d,p) (5D, 7F)
 There are   180 symmetry adapted cartesian basis functions of A   symmetry.
 There are   174 symmetry adapted basis functions of A   symmetry.
   174 basis functions,   270 primitive gaussians,   180 cartesian basis functions
    23 alpha electrons       23 beta electrons
       nuclear repulsion energy       228.9262540659 Hartrees.
 NAtoms=   12 NActive=   12 NUniq=   12 SFac= 1.00D+00 NAtFMM=   60 NAOKFM=F Big=F
 Integral buffers will be    131072 words long.
 Raffenetti 2 integral format.
 Two-electron integral symmetry is turned on.
 Nuclear repulsion after empirical dispersion term =      228.9110020643 Hartrees.
 One-electron integrals computed using PRISM.
 NBasis=   174 RedAO= T EigKep=  1.25D-05  NBF=   174
 NBsUse=   174 1.00D-06 EigRej= -1.00D+00 NBFU=   174
 ExpMin= 3.60D-02 ExpMax= 8.59D+03 ExpMxC= 1.30D+03 IAcc=3 IRadAn=         5 AccDes= 0.00D+00
 Harris functional with IExCor=  402 and IRadAn=       5 diagonalized for initial guess.
 HarFok:  IExCor=  402 AccDes= 0.00D+00 IRadAn=         5 IDoV= 1 UseB2=F ITyADJ=14
 ICtDFT=  3500011 ScaDFX=  1.000000  1.000000  1.000000  1.000000
 FoFCou: FMM=F IPFlag=           0 FMFlag=      100000 FMFlg1=           0
         NFxFlg=           0 DoJE=T BraDBF=F KetDBF=T FulRan=T
         wScrn=  0.000000 ICntrl=       500 IOpCl=  0 I1Cent=   200000004 NGrid=           0
         NMat0=    1 NMatS0=      1 NMatT0=    0 NMatD0=    1 NMtDS0=    0 NMtDT0=    0
 Petite list used in FoFCou.
 Keep R1 ints in memory in canonical form, NReq=164304793.
 Requested convergence on RMS density matrix=1.00D-08 within 128 cycles.
 Requested convergence on MAX density matrix=1.00D-06.
 Requested convergence on             energy=1.00D-06.
 No special actions if energy rises.
 SCF Done:  E(RB3LYP) =  -306.594484753     A.U. after   13 cycles
            NFock= 13  Conv=0.43D-08     -V/T= 2.0039
 SCF density gives NOpUse=  1 NOpAll=  1.

 **********************************************************************

            Population analysis using the SCF density.

 **********************************************************************

 Orbital symmetries:
 BldTbl:  Degeneracy threshold= 1.00D-02
       Occupied  (A) (A) (A) (A) (A) (A) (A) (A) (A) (A) (A) (A)
                 (A) (A) (A) (A) (A) (A) (A) (A) (A) (A) (A)
       Virtual   (A) (A) (A) (A) (A) (A) (A) (A) (A) (A) (A) (A)
                 (A) (A) (A) (A) (A) (A) (A) (A) (A) (A) (A) (A)
                 (A) (A) (A) (A) (A) (A) (A) (A) (A) (A) (A) (A)
                 (A) (A) (A) (A) (A) (A) (A) (A) (A) (A) (A) (A)
                 (A) (A) (A) (A) (A) (A) (A) (A) (A) (A) (A) (A)
                 (A) (A) (A) (A) (A) (A) (A) (A) (A) (A) (A) (A)
                 (A) (A) (A) (A) (A) (A) (A) (A) (A) (A) (A) (A)
                 (A) (A) (A) (A) (A) (A) (A) (A) (A) (A) (A) (A)
                 (A) (A) (A) (A) (A) (A) (A) (A) (A) (A) (A) (A)
                 (A) (A) (A) (A) (A) (A) (A) (A) (A) (A) (A) (A)
                 (A) (A) (A) (A) (A) (A) (A) (A) (A) (A) (A) (A)
                 (A) (A) (A) (A) (A) (A) (A) (A) (A) (A) (A) (A)
                 (A) (A) (A) (A) (A) (A) (A)
 The electronic state is 1-A.
 Alpha  occ. eigenvalues --  -19.18482 -19.11808 -10.31461 -10.20788 -10.19332
 Alpha  occ. eigenvalues --  -10.17747  -1.12648  -1.02546  -0.82757  -0.70682
 Alpha  occ. eigenvalues --   -0.67545  -0.57006  -0.50713  -0.49616  -0.47127
 Alpha  occ. eigenvalues --   -0.44310  -0.43262  -0.42147  -0.39828  -0.37513
 Alpha  occ. eigenvalues --   -0.33854  -0.29045  -0.28257
 Alpha virt. eigenvalues --   -0.06663  -0.01219   0.00031   0.01779   0.02997
 Alpha virt. eigenvalues --    0.03032   0.05123   0.05420   0.06264   0.07777
 Alpha virt. eigenvalues --    0.08480   0.08626   0.09752   0.10408   0.11295
 Alpha virt. eigenvalues --    0.12206   0.12900   0.13127   0.13560   0.14618
 Alpha virt. eigenvalues --    0.14814   0.15484   0.18208   0.18975   0.19551
 Alpha virt. eigenvalues --    0.20282   0.20670   0.21307   0.21759   0.24015
 Alpha virt. eigenvalues --    0.25205   0.26511   0.29172   0.29201   0.29966
 Alpha virt. eigenvalues --    0.31665   0.33712   0.35604   0.37009   0.37543
 Alpha virt. eigenvalues --    0.39220   0.42281   0.44260   0.47803   0.49360
 Alpha virt. eigenvalues --    0.51760   0.52230   0.55499   0.55999   0.58333
 Alpha virt. eigenvalues --    0.61364   0.62394   0.63494   0.64229   0.68022
 Alpha virt. eigenvalues --    0.71078   0.72328   0.74592   0.74670   0.81064
 Alpha virt. eigenvalues --    0.86162   0.89053   0.91050   0.92233   0.95605
 Alpha virt. eigenvalues --    0.98254   1.02049   1.03495   1.09225   1.11164
 Alpha virt. eigenvalues --    1.15950   1.18814   1.20865   1.24483   1.25378
 Alpha virt. eigenvalues --    1.35618   1.36201   1.40790   1.44186   1.45584
 Alpha virt. eigenvalues --    1.46062   1.49682   1.53805   1.56271   1.57887
 Alpha virt. eigenvalues --    1.58896   1.61227   1.63820   1.68119   1.71710
 Alpha virt. eigenvalues --    1.77447   1.80215   1.83301   1.83348   1.87917
 Alpha virt. eigenvalues --    1.91397   1.99394   2.01575   2.05441   2.07331
 Alpha virt. eigenvalues --    2.11570   2.17868   2.25767   2.33243   2.34011
 Alpha virt. eigenvalues --    2.44570   2.46590   2.50209   2.53078   2.53521
 Alpha virt. eigenvalues --    2.55888   2.61307   2.64345   2.68807   2.72174
 Alpha virt. eigenvalues --    2.74323   2.74532   2.85731   2.86859   2.94298
 Alpha virt. eigenvalues --    2.96120   3.00730   3.03830   3.05429   3.10290
 Alpha virt. eigenvalues --    3.16836   3.30000   3.35667   3.36977   3.56658
 Alpha virt. eigenvalues --    3.63545   3.68537   3.74195   3.79130   3.80228
 Alpha virt. eigenvalues --    3.82400   4.08745   4.25509   4.32632   4.93661
 Alpha virt. eigenvalues --    5.03689   5.16060   5.40854   5.59336   5.83915
 Alpha virt. eigenvalues --   23.69423  23.81799  23.96004  24.19539  49.85549
 Alpha virt. eigenvalues --   50.02068
          Condensed to atoms (all electrons):
               1          2          3          4          5          6
     1  H    0.461349   0.235240   0.071968  -0.008878  -0.025433  -0.022120
     2  O    0.235240   8.116035   0.275446  -0.138898  -0.357193   0.082067
     3  C    0.071968   0.275446   6.359218   0.376041  -0.687965  -0.029629
     4  O   -0.008878  -0.138898   0.376041   8.150143  -0.155182   0.088751
     5  C   -0.025433  -0.357193  -0.687965  -0.155182   6.751008  -0.386191
     6  C   -0.022120   0.082067  -0.029629   0.088751  -0.386191   6.379060
     7  H    0.001067  -0.000589   0.038583  -0.000464  -0.034236   0.348697
     8  H   -0.000568  -0.002177  -0.012744  -0.002365  -0.021672   0.382009
     9  C   -0.004829  -0.020511  -0.283701   0.018204   0.266348  -0.229943
    10  H    0.001567  -0.015629  -0.000728  -0.002950  -0.013132  -0.027543
    11  H    0.001564  -0.015626  -0.000754  -0.002945  -0.013107  -0.027526
    12  H   -0.001550   0.005350  -0.015707   0.002886  -0.068485   0.054721
               7          8          9         10         11         12
     1  H    0.001067  -0.000568  -0.004829   0.001567   0.001564  -0.001550
     2  O   -0.000589  -0.002177  -0.020511  -0.015629  -0.015626   0.005350
     3  C    0.038583  -0.012744  -0.283701  -0.000728  -0.000754  -0.015707
     4  O   -0.000464  -0.002365   0.018204  -0.002950  -0.002945   0.002886
     5  C   -0.034236  -0.021672   0.266348  -0.013132  -0.013107  -0.068485
     6  C    0.348697   0.382009  -0.229943  -0.027543  -0.027526   0.054721
     7  H    0.537204  -0.024095  -0.001815   0.002387   0.002385  -0.000078
     8  H   -0.024095   0.481093   0.009790  -0.001755  -0.001755   0.001156
     9  C   -0.001815   0.009790   5.740245   0.404791   0.404791   0.360125
    10  H    0.002387  -0.001755   0.404791   0.556336  -0.050124  -0.029031
    11  H    0.002385  -0.001755   0.404791  -0.050124   0.556351  -0.029024
    12  H   -0.000078   0.001156   0.360125  -0.029031  -0.029024   0.577381
 Mulliken charges:
               1
     1  H    0.290624
     2  O   -0.163516
     3  C   -0.090028
     4  O   -0.324342
     5  C    0.745241
     6  C   -0.612354
     7  H    0.130953
     8  H    0.193083
     9  C   -0.663495
    10  H    0.175810
    11  H    0.175767
    12  H    0.142256
 Sum of Mulliken charges =  -0.00000
 Mulliken charges with hydrogens summed into heavy atoms:
               1
     2  O    0.127108
     3  C   -0.090028
     4  O   -0.324342
     5  C    0.745241
     6  C   -0.288317
     9  C   -0.169662
 DipInt: DoE/N= T F RetVal/Mat= T F Init=T NMatP=  1 IDeriv=0 Min/MaxMlt=  0  4
 Entering OneElI...
 OneElI was handed 25769718324 working-precision words.
 Multipole integrals L=0 to 4 MinM= 0 MaxM= 0.
 Requested accuracy = 0.1000D-12
 ShPair: Thresh= 1.00D-13 NBox=     0 BxSize= 0.00D+00 RnKept= 9.94D+00
         NSMCal=                 2211 NSMKep=                2175
 PrmmSu-InSpLW:  IPartL=    0 NPrtUS=    1 NPrtUL=    1 DoSpLW=F IThBeg=    0 IThEnd=    0 NThAct=    1.
 PrsmSu:  NPrtUS=   1 ThrOK=F IAlg=1 NPAlg=1 LenDen=           0 ISkipM=0 DoSpLW=F IThBeg=    0 IThEnd=    0.
 Prism:   IPart=     0 DynPar=F LinDyn=F Incr=          21.
 PRISM was handed 25769568983 working-precision words and  2175 shell-pairs
 IPart=  0 NShTot=        2175 NBatch=          56 AvBLen=        38.8
 PrsmSu-ThDecC:  IPartSL=    0    0 NPrtUSL=    1    1 IThBeg=    0 IThEnd=    0 CPU=   -1 GPU=   -1 NThAct=    1.
 PrSmSu:  NxtVal=             22.
 Electronic moments (au):
        -46.00000000          0.52772801         -0.54748134         -0.00003414
       -315.02084465       -220.73547158        -33.05867762          3.71637978
          0.00026441         -0.00124281        -94.63884309        -13.17058581
         -0.00088593        -98.10593862        -23.54605416         -0.01311159
        -19.19470561         15.54845134          0.00551347          0.05057835
      -3695.07657151      -2087.47039071       -136.29425044         26.37399903
          0.00113976         -7.74546815          0.03417878         -0.00384913
          0.00666301      -1701.80616301       -234.18152120       -211.93301047
         -0.01372067          0.01698005         33.92243349
 Electronic spatial extent (au):  <R**2>=            568.8150
 DipInt: DoE/N= F T RetVal/Mat= T F Init=T NMatP=  1 IDeriv=0 Min/MaxMlt=  0  4
 Nuclear    moments (au):
         46.00000000         -0.00000000          0.00000000         -0.00000000
        291.32324275        192.36786153          5.65097387          0.00000000
          0.00000000          0.00000000         74.51539790         15.28577405
          0.00213575        103.42572334          9.59828053          0.01524518
         11.53041090        -19.02090561         -0.00692084         -0.04923070
       2752.70696841       1333.10058787         15.96673887         66.81427441
          0.00491913         34.64415480         -0.04869837          0.00563592
         -0.00671419       1392.52718855         23.52701699         64.02351616
          0.00651416         -0.01721427        -38.81083295
 Total      moments (au):
         -0.00000000          0.52772801         -0.54748134         -0.00003414
        -23.69760190        -28.36761004        -27.40770375          3.71637978
          0.00026441         -0.00124281        -20.12344519          2.11518824
          0.00124982          5.31978472        -13.94777363          0.00213359
         -7.66429471         -3.47245427         -0.00140737          0.00134765
       -942.36960310       -754.36980283       -120.32751158         93.18827343
          0.00605888         26.89868665         -0.01451958          0.00178679
         -0.00005118       -309.27897446       -210.65450420       -147.90949431
         -0.00720651         -0.00023422         -4.88839947
 Traceless Quadrup. (au):
          2.79337000         -1.87663815         -0.91673185          3.71637978
          0.00026441         -0.00124281
 Charge=             -0.0000 electrons
 Dipole moment (field-independent basis, Debye):
    X=              1.3414    Y=             -1.3916    Z=             -0.0001  Tot=              1.9328
 Quadrupole moment (field-independent basis, Debye-Ang):
   XX=            -31.8741   YY=            -38.1554   ZZ=            -36.8643
   XY=              4.9987   XZ=              0.0004   YZ=             -0.0017
 Traceless Quadrupole moment (field-independent basis, Debye-Ang):
   XX=              3.7572   YY=             -2.5241   ZZ=             -1.2330
   XY=              4.9987   XZ=              0.0004   YZ=             -0.0017
 Octapole moment (field-independent basis, Debye-Ang**2):
  XXX=            -14.3231  YYY=              1.5055  ZZZ=              0.0009  XYY=              3.7864
  XXY=             -9.9275  XXZ=              0.0015  XZZ=             -5.4551  YZZ=             -2.4716
  YYZ=             -0.0010  XYZ=              0.0010
 Hexadecapole moment (field-independent basis, Debye-Ang**3):
 XXXX=           -354.9416 YYYY=           -284.1318 ZZZZ=            -45.3211 XXXY=             35.0992
 XXXZ=              0.0023 YYYX=             10.1313 YYYZ=             -0.0055 ZZZX=              0.0007
 ZZZY=             -0.0000 XXYY=           -116.4893 XXZZ=            -79.3426 YYZZ=            -55.7098
 XXYZ=             -0.0027 YYXZ=             -0.0001 ZZXY=             -1.8412
 N-N= 2.289110020643D+02 E-N=-1.175311014807D+03  KE= 3.053899592486D+02
 Entering OneElI...
 OneElI was handed 25769736252 working-precision words.
 Calculate electrostatic properties
    NBasis =   174  MinDer = 0  MaxDer = 0
    NGrid  =    12  NMatD  =   1
 Requested accuracy = 0.1000D-12
 ShPair: Thresh= 1.00D-13 NBox=     0 BxSize= 0.00D+00 RnKept= 9.94D+00
         NSMCal=                 2211 NSMKep=                2112
 PrmmSu-InSpLW:  IPartL=    0 NPrtUS=   48 NPrtUL=    1 DoSpLW=F IThBeg=    0 IThEnd=   47 NThAct=   48.
 PrsmSu:  NPrtUS=  48 ThrOK=T IAlg=1 NPAlg=1 LenDen=           0 ISkipM=0 DoSpLW=F IThBeg=    0 IThEnd=   47.
 Prism:   IPart=     0 DynPar=F LinDyn=F Incr=           5.
 PRISM was handed   536820600 working-precision words and  2112 shell-pairs
 PRISM was handed   536820600 working-precision words and  2112 shell-pairs
 PRISM was handed   536820600 working-precision words and  2112 shell-pairs
 PRISM was handed   536820600 working-precision words and  2112 shell-pairs
 PRISM was handed   536820600 working-precision words and  2112 shell-pairs
 PRISM was handed   536820600 working-precision words and  2112 shell-pairs
 PRISM was handed   536820600 working-precision words and  2112 shell-pairs
 PRISM was handed   536820600 working-precision words and  2112 shell-pairs
 PRISM was handed   536820600 working-precision words and  2112 shell-pairs
 PRISM was handed   536820600 working-precision words and  2112 shell-pairs
 PRISM was handed   536820600 working-precision words and  2112 shell-pairs
 PRISM was handed   536820600 working-precision words and  2112 shell-pairs
 PRISM was handed   536820600 working-precision words and  2112 shell-pairs
 PRISM was handed   536820600 working-precision words and  2112 shell-pairs
 PRISM was handed   536820600 working-precision words and  2112 shell-pairs
 PRISM was handed   536820600 working-precision words and  2112 shell-pairs
 PRISM was handed   536820600 working-precision words and  2112 shell-pairs
 PRISM was handed   536820600 working-precision words and  2112 shell-pairs
 PRISM was handed   536820600 working-precision words and  2112 shell-pairs
 PRISM was handed   536820600 working-precision words and  2112 shell-pairs
 PRISM was handed   536820600 working-precision words and  2112 shell-pairs
 PRISM was handed   536820600 working-precision words and  2112 shell-pairs
 PRISM was handed   536820600 working-precision words and  2112 shell-pairs
 PRISM was handed   536820600 working-precision words and  2112 shell-pairs
 PRISM was handed   536820600 working-precision words and  2112 shell-pairs
 PRISM was handed   536820600 working-precision words and  2112 shell-pairs
 PRISM was handed   536820600 working-precision words and  2112 shell-pairs
 PRISM was handed   536820600 working-precision words and  2112 shell-pairs
 PRISM was handed   536820600 working-precision words and  2112 shell-pairs
 PRISM was handed   536820600 working-precision words and  2112 shell-pairs
 PRISM was handed   536820600 working-precision words and  2112 shell-pairs
 PRISM was handed   536820600 working-precision words and  2112 shell-pairs
 PRISM was handed   536820600 working-precision words and  2112 shell-pairs
 PRISM was handed   536820600 working-precision words and  2112 shell-pairs
 PRISM was handed   536820600 working-precision words and  2112 shell-pairs
 PRISM was handed   536820600 working-precision words and  2112 shell-pairs
 PRISM was handed   536820600 working-precision words and  2112 shell-pairs
 PRISM was handed   536820600 working-precision words and  2112 shell-pairs
 PRISM was handed   536820600 working-precision words and  2112 shell-pairs
 PRISM was handed   536820600 working-precision words and  2112 shell-pairs
 PRISM was handed   536820600 working-precision words and  2112 shell-pairs
 PRISM was handed   536820600 working-precision words and  2112 shell-pairs
 PRISM was handed   536820600 working-precision words and  2112 shell-pairs
 PRISM was handed   536820600 working-precision words and  2112 shell-pairs
 PRISM was handed   536820600 working-precision words and  2112 shell-pairs
 PRISM was handed   536820600 working-precision words and  2112 shell-pairs
 PRISM was handed   536820600 working-precision words and  2112 shell-pairs
 PRISM was handed   536820600 working-precision words and  2112 shell-pairs
 IPart= 38 NShTot=         408 NBatch=          34 AvBLen=        12.0
 PrsmSu-ThDecC:  IPartSL=   38    0 NPrtUSL=   48    1 IThBeg=    0 IThEnd=   47 CPU=   -1 GPU=   -1 NThAct=   48.
 IPart= 44 NShTot=         396 NBatch=          33 AvBLen=        12.0
 IPart= 27 NShTot=         456 NBatch=          38 AvBLen=        12.0
 IPart= 28 NShTot=         444 NBatch=          37 AvBLen=        12.0
 PrsmSu-ThDecC:  IPartSL=   44    0 NPrtUSL=   48    1 IThBeg=    0 IThEnd=   47 CPU=   -1 GPU=   -1 NThAct=   47.
 PrsmSu-ThDecC:  IPartSL=   28    0 NPrtUSL=   48    1 IThBeg=    0 IThEnd=   47 CPU=   -1 GPU=   -1 NThAct=   46.
 PrsmSu-ThDecC:  IPartSL=   27    0 NPrtUSL=   48    1 IThBeg=    0 IThEnd=   47 CPU=   -1 GPU=   -1 NThAct=   45.
 IPart= 16 NShTot=         540 NBatch=          45 AvBLen=        12.0
 PrsmSu-ThDecC:  IPartSL=   16    0 NPrtUSL=   48    1 IThBeg=    0 IThEnd=   47 CPU=   -1 GPU=   -1 NThAct=   44.
 IPart= 19 NShTot=         504 NBatch=          42 AvBLen=        12.0
 PrsmSu-ThDecC:  IPartSL=   19    0 NPrtUSL=   48    1 IThBeg=    0 IThEnd=   47 CPU=   -1 GPU=   -1 NThAct=   43.
 IPart=  0 NShTot=        1020 NBatch=          85 AvBLen=        12.0
 PrsmSu-ThDecC:  IPartSL=    0    0 NPrtUSL=   48    1 IThBeg=    0 IThEnd=   47 CPU=   -1 GPU=   -1 NThAct=   42.
 IPart= 14 NShTot=         564 NBatch=          47 AvBLen=        12.0
 PrsmSu-ThDecC:  IPartSL=   14    0 NPrtUSL=   48    1 IThBeg=    0 IThEnd=   47 CPU=   -1 GPU=   -1 NThAct=   41.
 IPart= 23 NShTot=         480 NBatch=          40 AvBLen=        12.0
 PrsmSu-ThDecC:  IPartSL=   23    0 NPrtUSL=   48    1 IThBeg=    0 IThEnd=   47 CPU=   -1 GPU=   -1 NThAct=   40.
 IPart= 34 NShTot=         408 NBatch=          34 AvBLen=        12.0
 PrsmSu-ThDecC:  IPartSL=   34    0 NPrtUSL=   48    1 IThBeg=    0 IThEnd=   47 CPU=   -1 GPU=   -1 NThAct=   39.
 IPart= 33 NShTot=         420 NBatch=          35 AvBLen=        12.0
 PrsmSu-ThDecC:  IPartSL=   33    0 NPrtUSL=   48    1 IThBeg=    0 IThEnd=   47 CPU=   -1 GPU=   -1 NThAct=   38.
 IPart= 26 NShTot=         456 NBatch=          38 AvBLen=        12.0
 PrsmSu-ThDecC:  IPartSL=   26    0 NPrtUSL=   48    1 IThBeg=    0 IThEnd=   47 CPU=   -1 GPU=   -1 NThAct=   37.
 IPart= 18 NShTot=         528 NBatch=          44 AvBLen=        12.0
 PrsmSu-ThDecC:  IPartSL=   18    0 NPrtUSL=   48    1 IThBeg=    0 IThEnd=   47 CPU=   -1 GPU=   -1 NThAct=   36.
 IPart= 30 NShTot=         444 NBatch=          37 AvBLen=        12.0
 PrsmSu-ThDecC:  IPartSL=   30    0 NPrtUSL=   48    1 IThBeg=    0 IThEnd=   47 CPU=   -1 GPU=   -1 NThAct=   35.
 IPart=  5 NShTot=         768 NBatch=          64 AvBLen=        12.0
 PrsmSu-ThDecC:  IPartSL=    5    0 NPrtUSL=   48    1 IThBeg=    0 IThEnd=   47 CPU=   -1 GPU=   -1 NThAct=   34.
 IPart= 10 NShTot=         612 NBatch=          51 AvBLen=        12.0
 PrsmSu-ThDecC:  IPartSL=   10    0 NPrtUSL=   48    1 IThBeg=    0 IThEnd=   47 CPU=   -1 GPU=   -1 NThAct=   33.
 IPart= 31 NShTot=         444 NBatch=          37 AvBLen=        12.0
 PrsmSu-ThDecC:  IPartSL=   31    0 NPrtUSL=   48    1 IThBeg=    0 IThEnd=   47 CPU=   -1 GPU=   -1 NThAct=   32.
 IPart= 17 NShTot=         528 NBatch=          44 AvBLen=        12.0
 PrsmSu-ThDecC:  IPartSL=   17    0 NPrtUSL=   48    1 IThBeg=    0 IThEnd=   47 CPU=   -1 GPU=   -1 NThAct=   31.
 IPart= 29 NShTot=         444 NBatch=          37 AvBLen=        12.0
 PrsmSu-ThDecC:  IPartSL=   29    0 NPrtUSL=   48    1 IThBeg=    0 IThEnd=   47 CPU=   -1 GPU=   -1 NThAct=   30.
 IPart=  2 NShTot=         840 NBatch=          70 AvBLen=        12.0
 PrsmSu-ThDecC:  IPartSL=    2    0 NPrtUSL=   48    1 IThBeg=    0 IThEnd=   47 CPU=   -1 GPU=   -1 NThAct=   29.
 IPart=  6 NShTot=         660 NBatch=          55 AvBLen=        12.0
 PrsmSu-ThDecC:  IPartSL=    6    0 NPrtUSL=   48    1 IThBeg=    0 IThEnd=   47 CPU=   -1 GPU=   -1 NThAct=   28.
 IPart= 41 NShTot=         408 NBatch=          34 AvBLen=        12.0
 PrsmSu-ThDecC:  IPartSL=   41    0 NPrtUSL=   48    1 IThBeg=    0 IThEnd=   47 CPU=   -1 GPU=   -1 NThAct=   27.
 IPart= 15 NShTot=         552 NBatch=          46 AvBLen=        12.0
 PrsmSu-ThDecC:  IPartSL=   15    0 NPrtUSL=   48    1 IThBeg=    0 IThEnd=   47 CPU=   -1 GPU=   -1 NThAct=   26.
 IPart= 46 NShTot=         396 NBatch=          33 AvBLen=        12.0
 PrsmSu-ThDecC:  IPartSL=   46    0 NPrtUSL=   48    1 IThBeg=    0 IThEnd=   47 CPU=   -1 GPU=   -1 NThAct=   25.
 IPart= 12 NShTot=         588 NBatch=          49 AvBLen=        12.0
 PrsmSu-ThDecC:  IPartSL=   12    0 NPrtUSL=   48    1 IThBeg=    0 IThEnd=   47 CPU=   -1 GPU=   -1 NThAct=   24.
 IPart= 42 NShTot=         396 NBatch=          33 AvBLen=        12.0
 PrsmSu-ThDecC:  IPartSL=   42    0 NPrtUSL=   48    1 IThBeg=    0 IThEnd=   47 CPU=   -1 GPU=   -1 NThAct=   23.
 IPart= 13 NShTot=         564 NBatch=          47 AvBLen=        12.0
 IPart= 20 NShTot=         504 NBatch=          42 AvBLen=        12.0
 PrsmSu-ThDecC:  IPartSL=   13    0 NPrtUSL=   48    1 IThBeg=    0 IThEnd=   47 CPU=   -1 GPU=   -1 NThAct=   22.
 IPart= 35 NShTot=         408 NBatch=          34 AvBLen=        12.0
 PrsmSu-ThDecC:  IPartSL=   20    0 NPrtUSL=   48    1 IThBeg=    0 IThEnd=   47 CPU=   -1 GPU=   -1 NThAct=   21.
 IPart= 40 NShTot=         408 NBatch=          34 AvBLen=        12.0
 PrsmSu-ThDecC:  IPartSL=   35    0 NPrtUSL=   48    1 IThBeg=    0 IThEnd=   47 CPU=   -1 GPU=   -1 NThAct=   20.
 PrsmSu-ThDecC:  IPartSL=   40    0 NPrtUSL=   48    1 IThBeg=    0 IThEnd=   47 CPU=   -1 GPU=   -1 NThAct=   19.
 IPart=  1 NShTot=         936 NBatch=          78 AvBLen=        12.0
 PrsmSu-ThDecC:  IPartSL=    1    0 NPrtUSL=   48    1 IThBeg=    0 IThEnd=   47 CPU=   -1 GPU=   -1 NThAct=   18.
 IPart= 22 NShTot=         492 NBatch=          41 AvBLen=        12.0
 PrsmSu-ThDecC:  IPartSL=   22    0 NPrtUSL=   48    1 IThBeg=    0 IThEnd=   47 CPU=   -1 GPU=   -1 NThAct=   17.
 IPart= 11 NShTot=         612 NBatch=          51 AvBLen=        12.0
 PrsmSu-ThDecC:  IPartSL=   11    0 NPrtUSL=   48    1 IThBeg=    0 IThEnd=   47 CPU=   -1 GPU=   -1 NThAct=   16.
 IPart= 36 NShTot=         408 NBatch=          34 AvBLen=        12.0
 PrsmSu-ThDecC:  IPartSL=   36    0 NPrtUSL=   48    1 IThBeg=    0 IThEnd=   47 CPU=   -1 GPU=   -1 NThAct=   15.
 IPart= 47 NShTot=         396 NBatch=          33 AvBLen=        12.0
 IPart= 43 NShTot=         396 NBatch=          33 AvBLen=        12.0
 IPart= 45 NShTot=         396 NBatch=          33 AvBLen=        12.0
 PrsmSu-ThDecC:  IPartSL=   47    0 NPrtUSL=   48    1 IThBeg=    0 IThEnd=   47 CPU=   -1 GPU=   -1 NThAct=   14.
 PrsmSu-ThDecC:  IPartSL=   45    0 NPrtUSL=   48    1 IThBeg=    0 IThEnd=   47 CPU=   -1 GPU=   -1 NThAct=   13.
 PrsmSu-ThDecC:  IPartSL=   43    0 NPrtUSL=   48    1 IThBeg=    0 IThEnd=   47 CPU=   -1 GPU=   -1 NThAct=   12.
 IPart= 25 NShTot=         468 NBatch=          39 AvBLen=        12.0
 PrsmSu-ThDecC:  IPartSL=   25    0 NPrtUSL=   48    1 IThBeg=    0 IThEnd=   47 CPU=   -1 GPU=   -1 NThAct=   11.
 IPart= 37 NShTot=         408 NBatch=          34 AvBLen=        12.0
 PrsmSu-ThDecC:  IPartSL=   37    0 NPrtUSL=   48    1 IThBeg=    0 IThEnd=   47 CPU=   -1 GPU=   -1 NThAct=   10.
 IPart= 39 NShTot=         408 NBatch=          34 AvBLen=        12.0
 PrsmSu-ThDecC:  IPartSL=   39    0 NPrtUSL=   48    1 IThBeg=    0 IThEnd=   47 CPU=   -1 GPU=   -1 NThAct=    9.
 IPart= 32 NShTot=         432 NBatch=          36 AvBLen=        12.0
 PrsmSu-ThDecC:  IPartSL=   32    0 NPrtUSL=   48    1 IThBeg=    0 IThEnd=   47 CPU=   -1 GPU=   -1 NThAct=    8.
 IPart= 24 NShTot=         468 NBatch=          39 AvBLen=        12.0
 PrsmSu-ThDecC:  IPartSL=   24    0 NPrtUSL=   48    1 IThBeg=    0 IThEnd=   47 CPU=   -1 GPU=   -1 NThAct=    7.
 IPart= 21 NShTot=         492 NBatch=          41 AvBLen=        12.0
 PrsmSu-ThDecC:  IPartSL=   21    0 NPrtUSL=   48    1 IThBeg=    0 IThEnd=   47 CPU=   -1 GPU=   -1 NThAct=    6.
 IPart=  4 NShTot=         780 NBatch=          65 AvBLen=        12.0
 PrsmSu-ThDecC:  IPartSL=    4    0 NPrtUSL=   48    1 IThBeg=    0 IThEnd=   47 CPU=   -1 GPU=   -1 NThAct=    5.
 IPart=  3 NShTot=         804 NBatch=          67 AvBLen=        12.0
 PrsmSu-ThDecC:  IPartSL=    3    0 NPrtUSL=   48    1 IThBeg=    0 IThEnd=   47 CPU=   -1 GPU=   -1 NThAct=    4.
 IPart=  9 NShTot=         612 NBatch=          51 AvBLen=        12.0
 PrsmSu-ThDecC:  IPartSL=    9    0 NPrtUSL=   48    1 IThBeg=    0 IThEnd=   47 CPU=   -1 GPU=   -1 NThAct=    3.
 IPart=  7 NShTot=         636 NBatch=          53 AvBLen=        12.0
 PrsmSu-ThDecC:  IPartSL=    7    0 NPrtUSL=   48    1 IThBeg=    0 IThEnd=   47 CPU=   -1 GPU=   -1 NThAct=    2.
 IPart=  8 NShTot=         612 NBatch=          51 AvBLen=        12.0
 PrsmSu-ThDecC:  IPartSL=    8    0 NPrtUSL=   48    1 IThBeg=    0 IThEnd=   47 CPU=   -1 GPU=   -1 NThAct=    1.
 PrSmSu:  NxtVal=            241.
 --------------------------------------------------------
       Center         ----      EFG at Nuclei      ----
                      3XX-RR        3YY-RR        3ZZ-RR
 --------------------------------------------------------
     1   Atom       -0.399408      0.173224      0.226184
     2   Atom       -1.081919     -0.077065      1.158984
     3   Atom        0.343420      0.043686     -0.387105
     4   Atom        0.745243      0.065822     -0.811065
     5   Atom        0.035144      0.221405     -0.256549
     6   Atom        0.159756      0.228742     -0.388498
     7   Atom       -0.316904      0.151781      0.165123
     8   Atom        0.064052     -0.224032      0.159980
     9   Atom        0.011675     -0.038059      0.026384
    10   Atom        0.118341      0.025947     -0.144288
    11   Atom        0.118222      0.025927     -0.144149
    12   Atom       -0.295229      0.140242      0.154987
 --------------------------------------------------------
                        XY            XZ            YZ
 --------------------------------------------------------
     1   Atom        0.075159      0.000114     -0.000020
     2   Atom       -0.773332      0.000317     -0.000034
     3   Atom       -0.146363     -0.000072      0.000070
     4   Atom        1.099020      0.000161      0.000050
     5   Atom        0.062787     -0.000013     -0.000063
     6   Atom        0.016979      0.000060     -0.000114
     7   Atom        0.004393     -0.000067      0.000002
     8   Atom        0.181227     -0.000056      0.000110
     9   Atom        0.067203     -0.000054     -0.000082
    10   Atom       -0.056547      0.099553      0.189983
    11   Atom       -0.056508     -0.099493     -0.189808
    12   Atom       -0.035347      0.000018      0.000003
 --------------------------------------------------------


 ---------------------------------------------------------------------------------
              Nuclear Quadrupole Coupling Constant in Principal Axis System
 ---------------------------------------------------------------------------------

       Atom             a.u.   MegaHertz   Gauss  10(-4) cm-1        Axes


 ---------------------------------------------------------------------------------

 No NMR shielding tensors so no spin-rotation constants.
 Leave Link  601 at Thu Apr 21 16:32:07 2022, MaxMem= 25769803776 cpu:               9.1 elap:               0.3
 Calling FoFJK, ICntrl=      2127 FMM=F ISym2X=0 I1Cent= 0 IOpClX= 0 NMat=1 NMatS=1 NMatT=0.
 ***** Axes restored to original set *****
 -------------------------------------------------------------------
 Center     Atomic                   Forces (Hartrees/Bohr)
 Number     Number              X              Y              Z
 -------------------------------------------------------------------
      1        1           0.007656512    0.003186822    0.004101366
      2        8          -0.012041110    0.002286180    0.002938748
      3        6          -0.005884754   -0.016769799   -0.021574190
      4        8           0.005817920    0.003830012    0.004935566
      5        6           0.012533089    0.000319114    0.000409996
      6        6          -0.010279483    0.000563764    0.000732222
      7        1          -0.001042495    0.001368804    0.001763659
      8        1          -0.001580175    0.001763940    0.002254498
      9        6           0.009432798    0.002717169    0.003614861
     10        1          -0.000935447   -0.001403034    0.003051084
     11        1          -0.000900021    0.003337341   -0.000691791
     12        1          -0.002776833   -0.001200315   -0.001536019
 -------------------------------------------------------------------
 Cartesian Forces:  Max     0.021574190 RMS     0.006508071

 GradGradGradGradGradGradGradGradGradGradGradGradGradGradGradGradGradGrad
 Berny optimization.
 FormGI is forming the generalized inverse of G from B-inverse, IUseBI=4.
 Internal  Forces:  Max     0.017680957 RMS     0.005039571
 Search for a local minimum.
 Step number   1 out of a maximum of   53
 All quantities printed in internal units (Hartrees-Bohrs-Radians)
 Mixed Optimization -- RFO/linear search
 Second derivative matrix not updated -- first step.
 ITU=  0
     Eigenvalues ---    0.00793   0.00990   0.01440   0.01485   0.02431
     Eigenvalues ---    0.02839   0.02839   0.07213   0.07289   0.16000
     Eigenvalues ---    0.16000   0.16000   0.16000   0.16000   0.16000
     Eigenvalues ---    0.25000   0.25000   0.25000   0.25000   0.32596
     Eigenvalues ---    0.34165   0.34222   0.34231   0.34248   0.35269
     Eigenvalues ---    0.35410   0.51594   0.56295   0.56469   0.96251
 RFO step:  Lambda=-3.65460817D-03 EMin= 7.93395116D-03
 Linear search not attempted -- first point.
 Iteration  1 RMS(Cart)=  0.04863409 RMS(Int)=  0.00060484
 Iteration  2 RMS(Cart)=  0.00089470 RMS(Int)=  0.00001486
 Iteration  3 RMS(Cart)=  0.00000010 RMS(Int)=  0.00001486
 Variable       Old X    -DE/DX   Delta X   Delta X   Delta X     New X
                                 (Linear)    (Quad)   (Total)
    R1        1.84990  -0.00826   0.00000  -0.01589  -0.01589   1.83401
    R2        2.53999   0.00990   0.00000   0.01747   0.01747   2.55745
    R3        2.30179  -0.00850   0.00000  -0.00880  -0.00880   2.29299
    R4        2.80257   0.00393   0.00000   0.01135   0.01135   2.81393
    R5        2.53850  -0.01158   0.00000  -0.02038  -0.02038   2.51812
    R6        2.83067   0.00723   0.00000   0.02193   0.02193   2.85260
    R7        2.05014  -0.00111   0.00000  -0.00312  -0.00312   2.04703
    R8        2.05241  -0.00176   0.00000  -0.00495  -0.00495   2.04746
    R9        2.06914  -0.00137   0.00000  -0.00397  -0.00397   2.06517
   R10        2.06943  -0.00147   0.00000  -0.00424  -0.00424   2.06518
   R11        2.07053  -0.00255   0.00000  -0.00737  -0.00737   2.06316
    A1        1.81120   0.00772   0.00000   0.04716   0.04716   1.85836
    A2        2.11349   0.00242   0.00000   0.00954   0.00954   2.12303
    A3        1.98210  -0.00307   0.00000  -0.01209  -0.01209   1.97002
    A4        2.18759   0.00065   0.00000   0.00255   0.00255   2.19014
    A5        2.12701  -0.01768   0.00000  -0.06970  -0.06970   2.05731
    A6        2.01812   0.01320   0.00000   0.05203   0.05203   2.07015
    A7        2.13805   0.00448   0.00000   0.01768   0.01768   2.15573
    A8        2.11717  -0.00112   0.00000  -0.00684  -0.00684   2.11032
    A9        2.13098  -0.00227   0.00000  -0.01384  -0.01384   2.11714
   A10        2.03504   0.00339   0.00000   0.02069   0.02069   2.05572
   A11        1.93101   0.00200   0.00000   0.01033   0.01036   1.94137
   A12        1.93080   0.00202   0.00000   0.01047   0.01050   1.94130
   A13        1.95044  -0.00327   0.00000  -0.01619  -0.01614   1.93431
   A14        1.89624  -0.00345   0.00000  -0.02846  -0.02844   1.86780
   A15        1.87657   0.00131   0.00000   0.01167   0.01171   1.88828
   A16        1.87661   0.00130   0.00000   0.01160   0.01165   1.88826
    D1       -0.00004  -0.00000   0.00000  -0.00019  -0.00020  -0.00024
    D2        3.14138   0.00001   0.00000   0.00036   0.00036  -3.14144
    D3        3.14143  -0.00000   0.00000  -0.00022  -0.00022   3.14121
    D4       -0.00014  -0.00000   0.00000  -0.00024  -0.00024  -0.00038
    D5       -0.00034   0.00001   0.00000   0.00036   0.00036   0.00002
    D6        3.14127   0.00001   0.00000   0.00035   0.00035  -3.14156
    D7        3.14146   0.00000   0.00000   0.00009   0.00009   3.14155
    D8       -0.00019   0.00001   0.00000   0.00018   0.00018  -0.00002
    D9       -0.00016   0.00000   0.00000   0.00010   0.00010  -0.00005
   D10        3.14138   0.00001   0.00000   0.00019   0.00019   3.14157
   D11       -1.05116   0.00084   0.00000   0.01107   0.01106  -1.04010
   D12        1.05113  -0.00084   0.00000  -0.01095  -0.01094   1.04019
   D13        3.14153   0.00000   0.00000   0.00006   0.00006  -3.14159
   D14        2.09045   0.00084   0.00000   0.01105   0.01104   2.10149
   D15       -2.09044  -0.00084   0.00000  -0.01097  -0.01096  -2.10140
   D16       -0.00004   0.00000   0.00000   0.00005   0.00005   0.00001
         Item               Value     Threshold  Converged?
 Maximum Force            0.017681     0.000450     NO 
 RMS     Force            0.005040     0.000300     NO 
 Maximum Displacement     0.134708     0.001800     NO 
 RMS     Displacement     0.048772     0.001200     NO 
 Predicted change in Energy=-1.854341D-03
 GradGradGradGradGradGradGradGradGradGradGradGradGradGradGradGradGradGrad

                          Input orientation:                          
 ---------------------------------------------------------------------
 Center     Atomic      Atomic             Coordinates (Angstroms)
 Number     Number       Type             X           Y           Z
 ---------------------------------------------------------------------
      1          1           0        1.199204    1.483650    1.781977
      2          8           0        2.164088    1.547809    1.864314
      3          6           0        2.685278    0.780888    0.878545
      4          8           0        1.977062    0.175619    0.101104
      5          6           0        4.174332    0.777261    0.874027
      6          6           0        4.792765    0.052120   -0.057291
      7          1           0        5.874251    0.014257   -0.105890
      8          1           0        4.234015   -0.518138   -0.789758
      9          6           0        4.902332    1.589603    1.917484
     10          1           0        4.641596    2.648574    1.847521
     11          1           0        4.641510    1.262019    2.926927
     12          1           0        5.983467    1.496139    1.797538
 ---------------------------------------------------------------------
                    Distance matrix (angstroms):
                    1          2          3          4          5
     1  H    0.000000
     2  O    0.970514   0.000000
     3  C    1.875761   1.353346   0.000000
     4  O    2.267453   2.242051   1.213398   0.000000
     5  C    3.189788   2.369704   1.489066   2.405697   0.000000
     6  C    4.283208   3.583238   2.418346   2.822857   1.332532
     7  H    5.251592   4.472001   3.424381   3.906016   2.105263
     8  H    4.453208   3.949283   2.620933   2.523643   2.109455
     9  C    3.707121   2.739078   2.578516   3.722336   1.509532
    10  H    3.634750   2.711090   2.873038   4.033016   2.160518
    11  H    3.634488   2.710800   2.873012   4.032967   2.160474
    12  H    4.784305   3.820312   3.497739   4.546750   2.154675
                    6          7          8          9         10
     6  C    0.000000
     7  H    1.083239   0.000000
     8  H    1.083468   1.855126   0.000000
     9  C    2.505114   2.742332   3.495480   0.000000
    10  H    3.223776   3.503552   4.141186   1.092838   0.000000
    11  H    3.223708   3.503504   4.141106   1.092848   1.757172
    12  H    2.635024   2.414733   3.716448   1.091776   1.769525
                   11         12
    11  H    0.000000
    12  H    1.769515   0.000000
 Stoichiometry    C4H6O2
 Framework group  C1[X(C4H6O2)]
 Deg. of freedom    30
 Full point group                 C1      NOp   1
 Largest Abelian subgroup         C1      NOp   1
 Largest concise Abelian subgroup C1      NOp   1
                         Standard orientation:                         
 ---------------------------------------------------------------------
 Center     Atomic      Atomic             Coordinates (Angstroms)
 Number     Number       Type             X           Y           Z
 ---------------------------------------------------------------------
      1          1           0       -2.224501   -1.093213   -0.000196
      2          8           0       -1.256795   -1.166990   -0.000167
      3          6           0       -0.775416    0.097850    0.000154
      4          8           0       -1.514475    1.060204    0.000097
      5          6           0        0.712708    0.150792    0.000032
      6          6           0        1.293456    1.350114   -0.000129
      7          1           0        2.372449    1.445936   -0.000179
      8          1           0        0.705592    2.260235   -0.000187
      9          6           0        1.482217   -1.147878    0.000090
     10          1           0        1.240482   -1.751106    0.878712
     11          1           0        1.240356   -1.751177   -0.878460
     12          1           0        2.557994   -0.961658   -0.000011
 ---------------------------------------------------------------------
 Rotational constants (GHZ):           5.3243207           3.5162890           2.1456892
 Standard basis: 6-311++G(d,p) (5D, 7F)
 There are   180 symmetry adapted cartesian basis functions of A   symmetry.
 There are   174 symmetry adapted basis functions of A   symmetry.
   174 basis functions,   270 primitive gaussians,   180 cartesian basis functions
    23 alpha electrons       23 beta electrons
       nuclear repulsion energy       228.6346880733 Hartrees.
 NAtoms=   12 NActive=   12 NUniq=   12 SFac= 1.00D+00 NAtFMM=   60 NAOKFM=F Big=F
 Integral buffers will be    131072 words long.
 Raffenetti 2 integral format.
 Two-electron integral symmetry is turned on.
 Nuclear repulsion after empirical dispersion term =      228.6194756647 Hartrees.
 One-electron integrals computed using PRISM.
 NBasis=   174 RedAO= T EigKep=  1.23D-05  NBF=   174
 NBsUse=   174 1.00D-06 EigRej= -1.00D+00 NBFU=   174
 Initial guess from the checkpoint file:  "MAA-2.chk"
 B after Tr=     0.000000    0.000000    0.000000
         Rot=    0.999579    0.000000   -0.000002   -0.029005 Ang=   3.32 deg.
 ExpMin= 3.60D-02 ExpMax= 8.59D+03 ExpMxC= 1.30D+03 IAcc=3 IRadAn=         5 AccDes= 0.00D+00
 Harris functional with IExCor=  402 and IRadAn=       5 diagonalized for initial guess.
 HarFok:  IExCor=  402 AccDes= 0.00D+00 IRadAn=         5 IDoV= 1 UseB2=F ITyADJ=14
 ICtDFT=  3500011 ScaDFX=  1.000000  1.000000  1.000000  1.000000
 FoFCou: FMM=F IPFlag=           0 FMFlag=      100000 FMFlg1=           0
         NFxFlg=           0 DoJE=T BraDBF=F KetDBF=T FulRan=T
         wScrn=  0.000000 ICntrl=       500 IOpCl=  0 I1Cent=   200000004 NGrid=           0
         NMat0=    1 NMatS0=      1 NMatT0=    0 NMatD0=    1 NMtDS0=    0 NMtDT0=    0
 Petite list used in FoFCou.
 Keep R1 ints in memory in canonical form, NReq=164304793.
 Requested convergence on RMS density matrix=1.00D-08 within 128 cycles.
 Requested convergence on MAX density matrix=1.00D-06.
 Requested convergence on             energy=1.00D-06.
 No special actions if energy rises.
 SCF Done:  E(RB3LYP) =  -306.596505943     A.U. after   11 cycles
            NFock= 11  Conv=0.46D-08     -V/T= 2.0039
 Calling FoFJK, ICntrl=      2127 FMM=F ISym2X=0 I1Cent= 0 IOpClX= 0 NMat=1 NMatS=1 NMatT=0.
 ***** Axes restored to original set *****
 -------------------------------------------------------------------
 Center     Atomic                   Forces (Hartrees/Bohr)
 Number     Number              X              Y              Z
 -------------------------------------------------------------------
      1        1           0.001776932    0.000243765    0.000314827
      2        8          -0.001311998    0.001601706    0.002028108
      3        6          -0.005331811   -0.006436668   -0.008176620
      4        8           0.003050972    0.002956853    0.003762729
      5        6           0.002941134    0.004548998    0.005811602
      6        6           0.000946801   -0.002284368   -0.002939015
      7        1           0.000365420    0.000077578    0.000104998
      8        1          -0.000625890    0.000572479    0.000733832
      9        6           0.000373153   -0.000730736   -0.000922327
     10        1          -0.000787886   -0.000095266    0.000163275
     11        1          -0.000785529    0.000186556   -0.000055466
     12        1          -0.000611298   -0.000640897   -0.000825943
 -------------------------------------------------------------------
 Cartesian Forces:  Max     0.008176620 RMS     0.002709157

 GradGradGradGradGradGradGradGradGradGradGradGradGradGradGradGradGradGrad
 Berny optimization.
 Using GEDIIS/GDIIS optimizer.
 FormGI is forming the generalized inverse of G from B-inverse, IUseBI=4.
 Internal  Forces:  Max     0.005666627 RMS     0.001432822
 Search for a local minimum.
 Step number   2 out of a maximum of   53
 All quantities printed in internal units (Hartrees-Bohrs-Radians)
 Mixed Optimization -- RFO/linear search
 Update second derivatives using D2CorX and points    1    2
 DE= -2.02D-03 DEPred=-1.85D-03 R= 1.09D+00
 TightC=F SS=  1.41D+00  RLast= 1.22D-01 DXNew= 5.0454D-01 3.6545D-01
 Trust test= 1.09D+00 RLast= 1.22D-01 DXMaxT set to 3.65D-01
 ITU=  1  0
 Use linear search instead of GDIIS.
     Eigenvalues ---    0.00793   0.00990   0.01442   0.01443   0.02431
     Eigenvalues ---    0.02839   0.02839   0.07165   0.07226   0.14743
     Eigenvalues ---    0.16000   0.16000   0.16000   0.16000   0.16388
     Eigenvalues ---    0.21818   0.25000   0.25000   0.26456   0.33888
     Eigenvalues ---    0.34031   0.34195   0.34241   0.34682   0.35248
     Eigenvalues ---    0.35520   0.50933   0.55449   0.59302   0.94911
 RFO step:  Lambda=-2.33882462D-04 EMin= 7.93395132D-03
 Quartic linear search produced a step of  0.11003.
 Iteration  1 RMS(Cart)=  0.00838371 RMS(Int)=  0.00004363
 Iteration  2 RMS(Cart)=  0.00006238 RMS(Int)=  0.00000285
 Iteration  3 RMS(Cart)=  0.00000000 RMS(Int)=  0.00000285
 Variable       Old X    -DE/DX   Delta X   Delta X   Delta X     New X
                                 (Linear)    (Quad)   (Total)
    R1        1.83401  -0.00181  -0.00175  -0.00313  -0.00488   1.82912
    R2        2.55745   0.00257   0.00192   0.00424   0.00616   2.56362
    R3        2.29299  -0.00567  -0.00097  -0.00612  -0.00709   2.28590
    R4        2.81393   0.00181   0.00125   0.00530   0.00655   2.82048
    R5        2.51812   0.00268  -0.00224   0.00623   0.00398   2.52210
    R6        2.85260  -0.00270   0.00241  -0.01024  -0.00783   2.84477
    R7        2.04703   0.00036  -0.00034   0.00127   0.00093   2.04795
    R8        2.04746  -0.00047  -0.00054  -0.00125  -0.00180   2.04566
    R9        2.06517   0.00009  -0.00044   0.00047   0.00003   2.06520
   R10        2.06518   0.00008  -0.00047   0.00047  -0.00000   2.06518
   R11        2.06316  -0.00046  -0.00081  -0.00113  -0.00195   2.06121
    A1        1.85836   0.00038   0.00519   0.00018   0.00537   1.86373
    A2        2.12303   0.00123   0.00105   0.00498   0.00603   2.12906
    A3        1.97002  -0.00318  -0.00133  -0.01352  -0.01485   1.95517
    A4        2.19014   0.00195   0.00028   0.00854   0.00882   2.19896
    A5        2.05731  -0.00189  -0.00767  -0.00491  -0.01258   2.04473
    A6        2.07015   0.00042   0.00572  -0.00072   0.00500   2.07515
    A7        2.15573   0.00147   0.00194   0.00564   0.00758   2.16331
    A8        2.11032   0.00049  -0.00075   0.00373   0.00298   2.11330
    A9        2.11714  -0.00128  -0.00152  -0.00819  -0.00971   2.10743
   A10        2.05572   0.00080   0.00228   0.00445   0.00673   2.06245
   A11        1.94137  -0.00029   0.00114  -0.00321  -0.00207   1.93930
   A12        1.94130  -0.00028   0.00116  -0.00315  -0.00200   1.93929
   A13        1.93431  -0.00124  -0.00178  -0.00643  -0.00820   1.92611
   A14        1.86780  -0.00010  -0.00313  -0.00171  -0.00485   1.86295
   A15        1.88828   0.00101   0.00129   0.00761   0.00890   1.89719
   A16        1.88826   0.00101   0.00128   0.00764   0.00892   1.89718
    D1       -0.00024   0.00001  -0.00002   0.00106   0.00104   0.00080
    D2       -3.14144  -0.00001   0.00004  -0.00099  -0.00095   3.14079
    D3        3.14121   0.00001  -0.00002   0.00111   0.00109  -3.14089
    D4       -0.00038   0.00001  -0.00003   0.00115   0.00113   0.00075
    D5        0.00002  -0.00001   0.00004  -0.00104  -0.00100  -0.00098
    D6       -3.14156  -0.00001   0.00004  -0.00100  -0.00096   3.14066
    D7        3.14155   0.00000   0.00001   0.00013   0.00014  -3.14150
    D8       -0.00002   0.00000   0.00002   0.00004   0.00006   0.00004
    D9       -0.00005   0.00000   0.00001   0.00008   0.00009   0.00004
   D10        3.14157   0.00000   0.00002  -0.00001   0.00001   3.14158
   D11       -1.04010   0.00025   0.00122   0.00315   0.00436  -1.03574
   D12        1.04019  -0.00025  -0.00120  -0.00321  -0.00441   1.03578
   D13       -3.14159   0.00000   0.00001   0.00001   0.00001  -3.14158
   D14        2.10149   0.00025   0.00121   0.00320   0.00441   2.10590
   D15       -2.10140  -0.00025  -0.00121  -0.00317  -0.00437  -2.10577
   D16        0.00001   0.00000   0.00001   0.00005   0.00006   0.00006
         Item               Value     Threshold  Converged?
 Maximum Force            0.005667     0.000450     NO 
 RMS     Force            0.001433     0.000300     NO 
 Maximum Displacement     0.019473     0.001800     NO 
 RMS     Displacement     0.008405     0.001200     NO 
 Predicted change in Energy=-1.382376D-04
 GradGradGradGradGradGradGradGradGradGradGradGradGradGradGradGradGradGrad

                          Input orientation:                          
 ---------------------------------------------------------------------
 Center     Atomic      Atomic             Coordinates (Angstroms)
 Number     Number       Type             X           Y           Z
 ---------------------------------------------------------------------
      1          1           0        1.208879    1.489365    1.788156
      2          8           0        2.172327    1.546229    1.861814
      3          6           0        2.687112    0.774652    0.871839
      4          8           0        1.981006    0.171903    0.096370
      5          6           0        4.179626    0.779467    0.877261
      6          6           0        4.794489    0.051960   -0.057588
      7          1           0        5.876018    0.009768   -0.112206
      8          1           0        4.223711   -0.513176   -0.783314
      9          6           0        4.900695    1.591344    1.919905
     10          1           0        4.632667    2.648542    1.850436
     11          1           0        4.633249    1.264399    2.927821
     12          1           0        5.980122    1.495347    1.796005
 ---------------------------------------------------------------------
                    Distance matrix (angstroms):
                    1          2          3          4          5
     1  H    0.000000
     2  O    0.967931   0.000000
     3  C    1.880326   1.356608   0.000000
     4  O    2.279042   2.245478   1.209647   0.000000
     5  C    3.187323   2.363582   1.492532   2.410987   0.000000
     6  C    4.281297   3.576685   2.413950   2.820244   1.334640
     7  H    5.251931   4.469318   3.423816   3.903961   2.109319
     8  H    4.439802   3.930144   2.599840   2.504576   2.104847
     9  C    3.695574   2.729360   2.581739   3.723531   1.505388
    10  H    3.615232   2.696016   2.873030   4.030112   2.155402
    11  H    3.616042   2.696653   2.873041   4.030516   2.155396
    12  H    4.771254   3.808704   3.495339   4.542378   2.144379
                    6          7          8          9         10
     6  C    0.000000
     7  H    1.083730   0.000000
     8  H    1.082518   1.858488   0.000000
     9  C    2.508279   2.753564   3.492092   0.000000
    10  H    3.226295   3.515823   4.135256   1.092855   0.000000
    11  H    3.226248   3.515728   4.135217   1.092847   1.754027
    12  H    2.631520   2.420548   3.711069   1.090747   1.774389
                   11         12
    11  H    0.000000
    12  H    1.774377   0.000000
 Stoichiometry    C4H6O2
 Framework group  C1[X(C4H6O2)]
 Deg. of freedom    30
 Full point group                 C1      NOp   1
 Largest Abelian subgroup         C1      NOp   1
 Largest concise Abelian subgroup C1      NOp   1
                         Standard orientation:                         
 ---------------------------------------------------------------------
 Center     Atomic      Atomic             Coordinates (Angstroms)
 Number     Number       Type             X           Y           Z
 ---------------------------------------------------------------------
      1          1           0       -2.209976   -1.117320    0.000502
      2          8           0       -1.243681   -1.173574    0.000124
      3          6           0       -0.777120    0.100280   -0.000580
      4          8           0       -1.520157    1.054817    0.000167
      5          6           0        0.714585    0.149950   -0.000113
      6          6           0        1.283840    1.357101    0.000095
      7          1           0        2.361952    1.467299    0.000351
      8          1           0        0.678410    2.254486   -0.000036
      9          6           0        1.485508   -1.143058    0.000037
     10          1           0        1.240345   -1.747453    0.876925
     11          1           0        1.240920   -1.747309   -0.877102
     12          1           0        2.558175   -0.945283    0.000397
 ---------------------------------------------------------------------
 Rotational constants (GHZ):           5.3138285           3.5289838           2.1485945
 Standard basis: 6-311++G(d,p) (5D, 7F)
 There are   180 symmetry adapted cartesian basis functions of A   symmetry.
 There are   174 symmetry adapted basis functions of A   symmetry.
   174 basis functions,   270 primitive gaussians,   180 cartesian basis functions
    23 alpha electrons       23 beta electrons
       nuclear repulsion energy       228.7344246184 Hartrees.
 NAtoms=   12 NActive=   12 NUniq=   12 SFac= 1.00D+00 NAtFMM=   60 NAOKFM=F Big=F
 Integral buffers will be    131072 words long.
 Raffenetti 2 integral format.
 Two-electron integral symmetry is turned on.
 Nuclear repulsion after empirical dispersion term =      228.7191977994 Hartrees.
 One-electron integrals computed using PRISM.
 NBasis=   174 RedAO= T EigKep=  1.23D-05  NBF=   174
 NBsUse=   174 1.00D-06 EigRej= -1.00D+00 NBFU=   174
 Initial guess from the checkpoint file:  "MAA-2.chk"
 B after Tr=    -0.000000   -0.000000   -0.000000
         Rot=    0.999996   -0.000003    0.000007   -0.002684 Ang=  -0.31 deg.
 Keep R1 ints in memory in canonical form, NReq=164304793.
 Requested convergence on RMS density matrix=1.00D-08 within 128 cycles.
 Requested convergence on MAX density matrix=1.00D-06.
 Requested convergence on             energy=1.00D-06.
 No special actions if energy rises.
 SCF Done:  E(RB3LYP) =  -306.596661738     A.U. after   10 cycles
            NFock= 10  Conv=0.38D-08     -V/T= 2.0039
 Calling FoFJK, ICntrl=      2127 FMM=F ISym2X=0 I1Cent= 0 IOpClX= 0 NMat=1 NMatS=1 NMatT=0.
 ***** Axes restored to original set *****
 -------------------------------------------------------------------
 Center     Atomic                   Forces (Hartrees/Bohr)
 Number     Number              X              Y              Z
 -------------------------------------------------------------------
      1        1          -0.000590243   -0.000032235   -0.000041869
      2        8          -0.000080926    0.000720510    0.001036979
      3        6          -0.001048512   -0.001705672   -0.002567950
      4        8           0.000744228    0.001024315    0.001463480
      5        6           0.000773193    0.000758094    0.001089338
      6        6           0.000792411   -0.000337705   -0.000423865
      7        1          -0.000016720   -0.000010906   -0.000029036
      8        1          -0.000226051   -0.000025938   -0.000029454
      9        6          -0.000331297   -0.000429302   -0.000556243
     10        1          -0.000049430    0.000047153   -0.000038349
     11        1          -0.000050903   -0.000049622    0.000043703
     12        1           0.000084251    0.000041308    0.000053266
 -------------------------------------------------------------------
 Cartesian Forces:  Max     0.002567950 RMS     0.000750241

 GradGradGradGradGradGradGradGradGradGradGradGradGradGradGradGradGradGrad
 Berny optimization.
 Using GEDIIS/GDIIS optimizer.
 FormGI is forming the generalized inverse of G from B-inverse, IUseBI=4.
 Internal  Forces:  Max     0.001883166 RMS     0.000448978
 Search for a local minimum.
 Step number   3 out of a maximum of   53
 All quantities printed in internal units (Hartrees-Bohrs-Radians)
 Mixed Optimization -- En-DIIS/RFO-DIIS
 Update second derivatives using D2CorX and points    1    2    3
 DE= -1.56D-04 DEPred=-1.38D-04 R= 1.13D+00
 TightC=F SS=  1.41D+00  RLast= 3.65D-02 DXNew= 6.1461D-01 1.0958D-01
 Trust test= 1.13D+00 RLast= 3.65D-02 DXMaxT set to 3.65D-01
 ITU=  1  1  0
 Use linear search instead of GDIIS.
     Eigenvalues ---    0.00793   0.00990   0.01438   0.01444   0.02431
     Eigenvalues ---    0.02839   0.02839   0.07165   0.07272   0.14410
     Eigenvalues ---    0.16000   0.16000   0.16000   0.16156   0.16376
     Eigenvalues ---    0.21423   0.25000   0.25698   0.26412   0.33242
     Eigenvalues ---    0.33971   0.34235   0.34246   0.34412   0.35359
     Eigenvalues ---    0.35486   0.51371   0.54476   0.58780   0.90389
 RFO step:  Lambda=-1.64749781D-05 EMin= 7.93395259D-03
 Quartic linear search produced a step of  0.15124.
 Iteration  1 RMS(Cart)=  0.00234383 RMS(Int)=  0.00000706
 Iteration  2 RMS(Cart)=  0.00000882 RMS(Int)=  0.00000388
 Iteration  3 RMS(Cart)=  0.00000000 RMS(Int)=  0.00000388
 Variable       Old X    -DE/DX   Delta X   Delta X   Delta X     New X
                                 (Linear)    (Quad)   (Total)
    R1        1.82912   0.00059  -0.00074   0.00154   0.00080   1.82992
    R2        2.56362   0.00137   0.00093   0.00243   0.00336   2.56698
    R3        2.28590  -0.00188  -0.00107  -0.00166  -0.00273   2.28317
    R4        2.82048   0.00098   0.00099   0.00276   0.00375   2.82423
    R5        2.52210   0.00080   0.00060   0.00089   0.00149   2.52360
    R6        2.84477  -0.00072  -0.00118  -0.00140  -0.00258   2.84219
    R7        2.04795  -0.00002   0.00014  -0.00019  -0.00005   2.04791
    R8        2.04566   0.00015  -0.00027   0.00059   0.00032   2.04598
    R9        2.06520   0.00006   0.00000   0.00013   0.00014   2.06534
   R10        2.06518   0.00007  -0.00000   0.00016   0.00016   2.06534
   R11        2.06121   0.00007  -0.00029   0.00032   0.00003   2.06124
    A1        1.86373   0.00001   0.00081   0.00025   0.00106   1.86479
    A2        2.12906  -0.00047   0.00091  -0.00257  -0.00167   2.12739
    A3        1.95517  -0.00006  -0.00225   0.00101  -0.00125   1.95391
    A4        2.19896   0.00053   0.00133   0.00158   0.00290   2.20186
    A5        2.04473   0.00016  -0.00190   0.00090  -0.00100   2.04373
    A6        2.07515  -0.00022   0.00076  -0.00068   0.00007   2.07522
    A7        2.16331   0.00006   0.00115  -0.00022   0.00093   2.16424
    A8        2.11330   0.00016   0.00045   0.00073   0.00118   2.11448
    A9        2.10743  -0.00026  -0.00147  -0.00106  -0.00253   2.10491
   A10        2.06245   0.00010   0.00102   0.00033   0.00135   2.06380
   A11        1.93930  -0.00009  -0.00031  -0.00032  -0.00064   1.93866
   A12        1.93929  -0.00008  -0.00030  -0.00031  -0.00061   1.93868
   A13        1.92611   0.00015  -0.00124   0.00178   0.00053   1.92664
   A14        1.86295   0.00004  -0.00073   0.00007  -0.00066   1.86228
   A15        1.89719  -0.00001   0.00135  -0.00065   0.00070   1.89788
   A16        1.89718  -0.00001   0.00135  -0.00065   0.00070   1.89788
    D1        0.00080  -0.00005   0.00016  -0.00437  -0.00420  -0.00340
    D2        3.14079   0.00005  -0.00014   0.00436   0.00421  -3.13819
    D3       -3.14089  -0.00006   0.00016  -0.00446  -0.00430   3.13800
    D4        0.00075  -0.00006   0.00017  -0.00462  -0.00445  -0.00371
    D5       -0.00098   0.00006  -0.00015   0.00469   0.00454   0.00357
    D6        3.14066   0.00006  -0.00015   0.00453   0.00439  -3.13814
    D7       -3.14150  -0.00001   0.00002  -0.00042  -0.00040   3.14128
    D8        0.00004  -0.00000   0.00001  -0.00017  -0.00016  -0.00012
    D9        0.00004  -0.00001   0.00001  -0.00025  -0.00023  -0.00019
   D10        3.14158  -0.00000   0.00000   0.00000   0.00001   3.14159
   D11       -1.03574   0.00003   0.00066   0.00021   0.00087  -1.03487
   D12        1.03578  -0.00003  -0.00067  -0.00011  -0.00078   1.03500
   D13       -3.14158   0.00000   0.00000   0.00005   0.00005  -3.14153
   D14        2.10590   0.00003   0.00067   0.00003   0.00070   2.10660
   D15       -2.10577  -0.00003  -0.00066  -0.00029  -0.00095  -2.10671
   D16        0.00006  -0.00000   0.00001  -0.00012  -0.00011  -0.00005
         Item               Value     Threshold  Converged?
 Maximum Force            0.001883     0.000450     NO 
 RMS     Force            0.000449     0.000300     NO 
 Maximum Displacement     0.006228     0.001800     NO 
 RMS     Displacement     0.002345     0.001200     NO 
 Predicted change in Energy=-1.099427D-05
 GradGradGradGradGradGradGradGradGradGradGradGradGradGradGradGradGradGrad

                          Input orientation:                          
 ---------------------------------------------------------------------
 Center     Atomic      Atomic             Coordinates (Angstroms)
 Number     Number       Type             X           Y           Z
 ---------------------------------------------------------------------
      1          1           0        1.207903    1.488115    1.791452
      2          8           0        2.171897    1.545798    1.862853
      3          6           0        2.686963    0.776547    0.868784
      4          8           0        1.979767    0.172596    0.097506
      5          6           0        4.181454    0.780378    0.876753
      6          6           0        4.796601    0.051465   -0.057942
      7          1           0        5.878018    0.007389   -0.112798
      8          1           0        4.223351   -0.512404   -0.782958
      9          6           0        4.900730    1.591382    1.919342
     10          1           0        4.632458    2.648541    1.849076
     11          1           0        4.630370    1.265022    2.926760
     12          1           0        5.980390    1.494971    1.797670
 ---------------------------------------------------------------------
                    Distance matrix (angstroms):
                    1          2          3          4          5
     1  H    0.000000
     2  O    0.968354   0.000000
     3  C    1.882887   1.358386   0.000000
     4  O    2.279434   2.244782   1.208202   0.000000
     5  C    3.190544   2.365709   1.494517   2.413307   0.000000
     6  C    4.285204   3.579323   2.415603   2.823719   1.335430
     7  H    5.256301   4.472721   3.426068   3.907414   2.110700
     8  H    4.441012   3.930010   2.598102   2.505616   2.104205
     9  C    3.696484   2.729799   2.582323   3.723448   1.504020
    10  H    3.616281   2.696404   2.872331   4.029277   2.153799
    11  H    3.612752   2.693478   2.872404   4.027874   2.153819
    12  H    4.772496   3.809390   3.496516   4.543591   2.143572
                    6          7          8          9         10
     6  C    0.000000
     7  H    1.083705   0.000000
     8  H    1.082687   1.859360   0.000000
     9  C    2.508353   2.755670   3.491014   0.000000
    10  H    3.226214   3.517962   4.133587   1.092929   0.000000
    11  H    3.226267   3.518122   4.133632   1.092931   1.753720
    12  H    2.632178   2.423483   3.711654   1.090763   1.774905
                   11         12
    11  H    0.000000
    12  H    1.774902   0.000000
 Stoichiometry    C4H6O2
 Framework group  C1[X(C4H6O2)]
 Deg. of freedom    30
 Full point group                 C1      NOp   1
 Largest Abelian subgroup         C1      NOp   1
 Largest concise Abelian subgroup C1      NOp   1
                         Standard orientation:                         
 ---------------------------------------------------------------------
 Center     Atomic      Atomic             Coordinates (Angstroms)
 Number     Number       Type             X           Y           Z
 ---------------------------------------------------------------------
      1          1           0       -2.213248   -1.114774   -0.002488
      2          8           0       -1.246566   -1.171637   -0.000910
      3          6           0       -0.777279    0.103106    0.002518
      4          8           0       -1.519428    1.056499   -0.000326
      5          6           0        0.716548    0.148500    0.000506
      6          6           0        1.288440    1.355277   -0.000708
      7          1           0        2.366606    1.464689   -0.001902
      8          1           0        0.682360    2.252427   -0.000346
      9          6           0        1.483107   -1.145511    0.000111
     10          1           0        1.236562   -1.748657    0.877564
     11          1           0        1.234336   -1.749471   -0.876155
     12          1           0        2.556449   -0.951347   -0.001345
 ---------------------------------------------------------------------
 Rotational constants (GHZ):           5.3141934           3.5245387           2.1469975
 Standard basis: 6-311++G(d,p) (5D, 7F)
 There are   180 symmetry adapted cartesian basis functions of A   symmetry.
 There are   174 symmetry adapted basis functions of A   symmetry.
   174 basis functions,   270 primitive gaussians,   180 cartesian basis functions
    23 alpha electrons       23 beta electrons
       nuclear repulsion energy       228.6745650186 Hartrees.
 NAtoms=   12 NActive=   12 NUniq=   12 SFac= 1.00D+00 NAtFMM=   60 NAOKFM=F Big=F
 Integral buffers will be    131072 words long.
 Raffenetti 2 integral format.
 Two-electron integral symmetry is turned on.
 Nuclear repulsion after empirical dispersion term =      228.6593414157 Hartrees.
 One-electron integrals computed using PRISM.
 NBasis=   174 RedAO= T EigKep=  1.23D-05  NBF=   174
 NBsUse=   174 1.00D-06 EigRej= -1.00D+00 NBFU=   174
 Initial guess from the checkpoint file:  "MAA-2.chk"
 B after Tr=     0.000000   -0.000000    0.000000
         Rot=    1.000000    0.000015   -0.000030    0.000942 Ang=   0.11 deg.
 Keep R1 ints in memory in canonical form, NReq=164304793.
 Requested convergence on RMS density matrix=1.00D-08 within 128 cycles.
 Requested convergence on MAX density matrix=1.00D-06.
 Requested convergence on             energy=1.00D-06.
 No special actions if energy rises.
 SCF Done:  E(RB3LYP) =  -306.596669722     A.U. after    9 cycles
            NFock=  9  Conv=0.75D-08     -V/T= 2.0039
 Calling FoFJK, ICntrl=      2127 FMM=F ISym2X=0 I1Cent= 0 IOpClX= 0 NMat=1 NMatS=1 NMatT=0.
 ***** Axes restored to original set *****
 -------------------------------------------------------------------
 Center     Atomic                   Forces (Hartrees/Bohr)
 Number     Number              X              Y              Z
 -------------------------------------------------------------------
      1        1          -0.000076289   -0.000116143   -0.000149288
      2        8           0.000180899    0.000656389    0.000365541
      3        6          -0.000101166   -0.001056895    0.000241217
[...]
 8566 Fit       0.006593
 8567 Fit       0.007861
 8568 Fit       0.009223
 8569 Fit       0.010550
 8570 Fit       0.011641
 8571 Fit       0.012267
 8572 Fit       0.012266
 8573 Fit       0.011640
 8574 Fit       0.010548
 8575 Fit       0.009221
 8576 Fit       0.007859
 8577 Fit       0.006590
 8578 Fit       0.005795
 8579 Fit       0.006789
 8580 Fit       0.007813
 8581 Fit       0.008770
 8582 Fit       0.009528
 8583 Fit       0.009951
 8584 Fit       0.009950
 8585 Fit       0.009526
 8586 Fit       0.008768
 8587 Fit       0.007811
 8588 Fit       0.006787
 8589 Fit       0.005794
 8590 Fit       0.006589
 8591 Fit       0.007284
 8592 Fit       0.007818
 8593 Fit       0.008110
 8594 Fit       0.008110
 8595 Fit       0.007817
 8596 Fit       0.007283
 8597 Fit       0.006588
 8598 Fit       0.006441
 8599 Fit       0.006648
 8600 Fit       0.006648
 8601 Fit       0.006441
 8602 Fit       0.005527
 8603 Fit       0.005527
 8604 Fit       0.005694
 8605 Fit       0.005955
 8606 Fit       0.006154
 8607 Fit       0.006264
 8608 Fit       0.006263
 8609 Fit       0.006154
 8610 Fit       0.005955
 8611 Fit       0.005694
 8612 Fit       0.005943
 8613 Fit       0.006358
 8614 Fit       0.006743
 8615 Fit       0.007049
 8616 Fit       0.007221
 8617 Fit       0.007221
 8618 Fit       0.007049
 8619 Fit       0.006743
 8620 Fit       0.006358
 8621 Fit       0.005943
 8622 Fit       0.006012
 8623 Fit       0.006571
 8624 Fit       0.007162
 8625 Fit       0.007739
 8626 Fit       0.008219
 8627 Fit       0.008497
 8628 Fit       0.008497
 8629 Fit       0.008219
 8630 Fit       0.007739
 8631 Fit       0.007161
 8632 Fit       0.006570
 8633 Fit       0.006011
 8634 Fit       0.005883
 8635 Fit       0.006537
 8636 Fit       0.007287
 8637 Fit       0.008123
 8638 Fit       0.008985
 8639 Fit       0.009733
 8640 Fit       0.010179
 8641 Fit       0.010178
 8642 Fit       0.009732
 8643 Fit       0.008984
 8644 Fit       0.008122
 8645 Fit       0.007286
 8646 Fit       0.006537
 8647 Fit       0.005883
 8648 Fit       0.006272
 8649 Fit       0.007090
 8650 Fit       0.008069
 8651 Fit       0.009216
 8652 Fit       0.010451
 8653 Fit       0.011567
 8654 Fit       0.012250
 8655 Fit       0.012250
 8656 Fit       0.011566
 8657 Fit       0.010450
 8658 Fit       0.009214
 8659 Fit       0.008068
 8660 Fit       0.007089
 8661 Fit       0.006271
 8662 Fit       0.006644
 8663 Fit       0.007633
 8664 Fit       0.008856
 8665 Fit       0.010334
 8666 Fit       0.011978
 8667 Fit       0.013507
 8668 Fit       0.014462
 8669 Fit       0.014461
 8670 Fit       0.013505
 8671 Fit       0.011976
 8672 Fit       0.010332
 8673 Fit       0.008855
 8674 Fit       0.007632
 8675 Fit       0.006643
 8676 Fit       0.006974
 8677 Fit       0.008119
 8678 Fit       0.009552
 8679 Fit       0.011304
 8680 Fit       0.013278
 8681 Fit       0.015134
 8682 Fit       0.016305
 8683 Fit       0.016304
 8684 Fit       0.015132
 8685 Fit       0.013275
 8686 Fit       0.011301
 8687 Fit       0.009550
 8688 Fit       0.008117
 8689 Fit       0.006973
 8690 Fit       0.007239
 8691 Fit       0.008500
 8692 Fit       0.010070
 8693 Fit       0.011970
 8694 Fit       0.014086
 8695 Fit       0.016056
 8696 Fit       0.017291
 8697 Fit       0.017290
 8698 Fit       0.016054
 8699 Fit       0.014083
 8700 Fit       0.011967
 8701 Fit       0.010068
 8702 Fit       0.008498
 8703 Fit       0.007237
 8704 Fit       0.007426
 8705 Fit       0.008761
 8706 Fit       0.010388
 8707 Fit       0.012301
 8708 Fit       0.014364
 8709 Fit       0.016228
 8710 Fit       0.017372
 8711 Fit       0.017371
 8712 Fit       0.016226
 8713 Fit       0.014361
 8714 Fit       0.012298
 8715 Fit       0.010385
 8716 Fit       0.008758
 8717 Fit       0.007424
 8718 Fit       0.007541
 8719 Fit       0.008917
 8720 Fit       0.010553
 8721 Fit       0.012407
 8722 Fit       0.014323
 8723 Fit       0.015986
 8724 Fit       0.016976
 8725 Fit       0.016976
 8726 Fit       0.015984
 8727 Fit       0.014320
 8728 Fit       0.012404
 8729 Fit       0.010550
 8730 Fit       0.008915
 8731 Fit       0.007539
 8732 Fit       0.007599
 8733 Fit       0.009007
 8734 Fit       0.010647
 8735 Fit       0.012452
 8736 Fit       0.014253
 8737 Fit       0.015762
 8738 Fit       0.016638
 8739 Fit       0.016637
 8740 Fit       0.015760
 8741 Fit       0.014250
 8742 Fit       0.012449
 8743 Fit       0.010645
 8744 Fit       0.009005
 8745 Fit       0.007597
 8746 Fit       0.009063
 8747 Fit       0.010735
 8748 Fit       0.012553
 8749 Fit       0.014341
 8750 Fit       0.015817
 8751 Fit       0.016664
 8752 Fit       0.016663
 8753 Fit       0.015815
 8754 Fit       0.014338
 8755 Fit       0.012550
 8756 Fit       0.010732
 8757 Fit       0.009060
 8758 Fit       0.007595
 8759 Fit       0.009088
 8760 Fit       0.010823
 8761 Fit       0.012721
 8762 Fit       0.014599
 8763 Fit       0.016160
 8764 Fit       0.017060
 8765 Fit       0.017059
 8766 Fit       0.016158
 8767 Fit       0.014596
 8768 Fit       0.012718
 8769 Fit       0.010820
 8770 Fit       0.009086
 8771 Fit       0.007592
 8772 Fit       0.007525
 8773 Fit       0.009060
 8774 Fit       0.010862
 8775 Fit       0.012863
 8776 Fit       0.014876
 8777 Fit       0.016577
 8778 Fit       0.017570
 8779 Fit       0.017569
 8780 Fit       0.016574
 8781 Fit       0.014873
 8782 Fit       0.012860
 8783 Fit       0.010859
 8784 Fit       0.009057
 8785 Fit       0.007523
 8786 Fit       0.007386
 8787 Fit       0.008932
 8788 Fit       0.010765
 8789 Fit       0.012824
 8790 Fit       0.014924
 8791 Fit       0.016722
 8792 Fit       0.017783
 8793 Fit       0.017782
 8794 Fit       0.016720
 8795 Fit       0.014921
 8796 Fit       0.012820
 8797 Fit       0.010762
 8798 Fit       0.008929
 8799 Fit       0.007383
 8800 Fit       0.007154
 8801 Fit       0.008662
 8802 Fit       0.010452
 8803 Fit       0.012465
 8804 Fit       0.014524
 8805 Fit       0.016292
 8806 Fit       0.017336
 8807 Fit       0.017335
 8808 Fit       0.016289
 8809 Fit       0.014521
 8810 Fit       0.012462
 8811 Fit       0.010448
 8812 Fit       0.008659
 8813 Fit       0.007151
 8814 Fit       0.006820
 8815 Fit       0.008234
 8816 Fit       0.009895
 8817 Fit       0.011744
 8818 Fit       0.013614
 8819 Fit       0.015203
 8820 Fit       0.016135
 8821 Fit       0.016134
 8822 Fit       0.015200
 8823 Fit       0.013611
 8824 Fit       0.011740
 8825 Fit       0.009892
 8826 Fit       0.008231
 8827 Fit       0.006818
 8828 Fit       0.006393
 8829 Fit       0.007666
 8830 Fit       0.009132
 8831 Fit       0.010730
 8832 Fit       0.012310
 8833 Fit       0.013626
 8834 Fit       0.014387
 8835 Fit       0.014386
 8836 Fit       0.013624
 8837 Fit       0.012307
 8838 Fit       0.010727
 8839 Fit       0.009129
 8840 Fit       0.007663
 8841 Fit       0.006391
 8842 Fit       0.007001
 8843 Fit       0.008243
 8844 Fit       0.009557
 8845 Fit       0.010821
 8846 Fit       0.011847
 8847 Fit       0.012430
 8848 Fit       0.012429
 8849 Fit       0.011845
 8850 Fit       0.010819
 8851 Fit       0.009555
 8852 Fit       0.008240
 8853 Fit       0.006999
 8854 Fit       0.007312
 8855 Fit       0.008359
 8856 Fit       0.009335
 8857 Fit       0.010106
 8858 Fit       0.010537
 8859 Fit       0.010536
 8860 Fit       0.010105
 8861 Fit       0.009333
 8862 Fit       0.008357
 8863 Fit       0.007310
 8864 Fit       0.007225
 8865 Fit       0.007966
 8866 Fit       0.008538
 8867 Fit       0.008851
 8868 Fit       0.008851
 8869 Fit       0.008537
 8870 Fit       0.007965
 8871 Fit       0.007224
 8872 Fit       0.006760
 8873 Fit       0.007183
 8874 Fit       0.007412
 8875 Fit       0.007412
 8876 Fit       0.007183
 8877 Fit       0.006759
 8878 Fit       0.005945
 8879 Fit       0.005945
 8880 Fit       0.006032
 8881 Fit       0.006354
 8882 Fit       0.006601
 8883 Fit       0.006736
 8884 Fit       0.006736
 8885 Fit       0.006601
 8886 Fit       0.006354
 8887 Fit       0.006032
 8888 Fit       0.006224
 8889 Fit       0.006710
 8890 Fit       0.007158
 8891 Fit       0.007512
 8892 Fit       0.007709
 8893 Fit       0.007709
 8894 Fit       0.007511
 8895 Fit       0.007158
 8896 Fit       0.006709
 8897 Fit       0.006224
 8898 Fit       0.006210
 8899 Fit       0.006830
 8900 Fit       0.007475
 8901 Fit       0.008092
 8902 Fit       0.008592
 8903 Fit       0.008877
 8904 Fit       0.008877
 8905 Fit       0.008592
 8906 Fit       0.008091
 8907 Fit       0.007475
 8908 Fit       0.006830
 8909 Fit       0.006209
 8910 Fit       0.006691
 8911 Fit       0.007467
 8912 Fit       0.008299
 8913 Fit       0.009117
 8914 Fit       0.009799
 8915 Fit       0.010193
 8916 Fit       0.010192
 8917 Fit       0.009798
 8918 Fit       0.009117
 8919 Fit       0.008298
 8920 Fit       0.007466
 8921 Fit       0.006690
 8922 Fit       0.007155
 8923 Fit       0.008089
 8924 Fit       0.009112
 8925 Fit       0.010139
 8926 Fit       0.011008
 8927 Fit       0.011516
 8928 Fit       0.011516
 8929 Fit       0.011007
 8930 Fit       0.010138
 8931 Fit       0.009111
 8932 Fit       0.008087
 8933 Fit       0.007154
 8934 Fit       0.006638
 8935 Fit       0.007568
 8936 Fit       0.008640
 8937 Fit       0.009824
 8938 Fit       0.011021
 8939 Fit       0.012040
 8940 Fit       0.012639
 8941 Fit       0.012639
 8942 Fit       0.012039
 8943 Fit       0.011019
 8944 Fit       0.009822
 8945 Fit       0.008638
 8946 Fit       0.007567
 8947 Fit       0.006637
 8948 Fit       0.006883
 8949 Fit       0.007901
 8950 Fit       0.009072
 8951 Fit       0.010358
 8952 Fit       0.011650
 8953 Fit       0.012744
 8954 Fit       0.013383
 8955 Fit       0.013383
 8956 Fit       0.012742
 8957 Fit       0.011649
 8958 Fit       0.010357
 8959 Fit       0.009070
 8960 Fit       0.007900
 8961 Fit       0.006882
 8962 Fit       0.008143
 8963 Fit       0.009370
 8964 Fit       0.010697
 8965 Fit       0.012005
 8966 Fit       0.013094
 8967 Fit       0.013724
 8968 Fit       0.013723
 8969 Fit       0.013093
 8970 Fit       0.012004
 8971 Fit       0.010695
 8972 Fit       0.009368
 8973 Fit       0.008141
 8974 Fit       0.008301
 8975 Fit       0.009555
 8976 Fit       0.010884
 8977 Fit       0.012164
 8978 Fit       0.013207
 8979 Fit       0.013800
 8980 Fit       0.013800
 8981 Fit       0.013206
 8982 Fit       0.012163
 8983 Fit       0.010882
 8984 Fit       0.009553
 8985 Fit       0.008299
 8986 Fit       0.008395
 8987 Fit       0.009668
 8988 Fit       0.010994
 8989 Fit       0.012247
 8990 Fit       0.013248
 8991 Fit       0.013811
 8992 Fit       0.013810
 8993 Fit       0.013247
 8994 Fit       0.012245
 8995 Fit       0.010992
 8996 Fit       0.009666
 8997 Fit       0.008393
 8998 Fit       0.009738
 8999 Fit       0.011081
 9000 Fit       0.012338
 9001 Fit       0.013334
 9002 Fit       0.013889
 9003 Fit       0.013889
 9004 Fit       0.013332
 9005 Fit       0.012336
 9006 Fit       0.011079
 9007 Fit       0.009736
 9008 Fit       0.009770
 9009 Fit       0.011150
 9010 Fit       0.012444
 9011 Fit       0.013472
 9012 Fit       0.014046
 9013 Fit       0.014046
 9014 Fit       0.013471
 9015 Fit       0.012442
 9016 Fit       0.011148
 9017 Fit       0.009768
 9018 Fit       0.008376
 9019 Fit       0.009735
 9020 Fit       0.011154
 9021 Fit       0.012497
 9022 Fit       0.013570
 9023 Fit       0.014173
 9024 Fit       0.014173
 9025 Fit       0.013569
 9026 Fit       0.012495
 9027 Fit       0.011152
 9028 Fit       0.009733
 9029 Fit       0.008374
 9030 Fit       0.008224
 9031 Fit       0.009587
 9032 Fit       0.011018
 9033 Fit       0.012382
 9034 Fit       0.013479
 9035 Fit       0.014099
 9036 Fit       0.014098
 9037 Fit       0.013478
 9038 Fit       0.012379
 9039 Fit       0.011016
 9040 Fit       0.009584
 9041 Fit       0.008222
 9042 Fit       0.007960
 9043 Fit       0.009284
 9044 Fit       0.010675
 9045 Fit       0.012001
 9046 Fit       0.013070
 9047 Fit       0.013674
 9048 Fit       0.013674
 9049 Fit       0.013069
 9050 Fit       0.011999
 9051 Fit       0.010673
 9052 Fit       0.009281
 9053 Fit       0.007958
 9054 Fit       0.007577
 9055 Fit       0.008813
 9056 Fit       0.010104
 9057 Fit       0.011326
 9058 Fit       0.012305
 9059 Fit       0.012856
 9060 Fit       0.012856
 9061 Fit       0.012304
 9062 Fit       0.011324
 9063 Fit       0.010101
 9064 Fit       0.008811
 9065 Fit       0.007575
 9066 Fit       0.008197
 9067 Fit       0.009339
 9068 Fit       0.010406
 9069 Fit       0.011251
 9070 Fit       0.011723
 9071 Fit       0.011723
 9072 Fit       0.011250
 9073 Fit       0.010404
 9074 Fit       0.009337
 9075 Fit       0.008195
 9076 Fit       0.007482
 9077 Fit       0.008453
 9078 Fit       0.009344
 9079 Fit       0.010039
 9080 Fit       0.010423
 9081 Fit       0.010423
 9082 Fit       0.010038
 9083 Fit       0.009343
 9084 Fit       0.008452
 9085 Fit       0.007481
 9086 Fit       0.007525
 9087 Fit       0.008245
 9088 Fit       0.008797
 9089 Fit       0.009099
 9090 Fit       0.009098
 9091 Fit       0.008796
 9092 Fit       0.008244
 9093 Fit       0.007524
 9094 Fit       0.007618
 9095 Fit       0.007850
 9096 Fit       0.007850
 9097 Fit       0.007617
 9098 Fit       0.006582
 9099 Fit       0.006847
 9100 Fit       0.006992
 9101 Fit       0.006992
 9102 Fit       0.006847
 9103 Fit       0.006582
 9104 Fit       0.006844
 9105 Fit       0.007296
 9106 Fit       0.007646
 9107 Fit       0.007839
 9108 Fit       0.007839
 9109 Fit       0.007646
 9110 Fit       0.007296
 9111 Fit       0.006843
 9112 Fit       0.006860
 9113 Fit       0.007477
 9114 Fit       0.008046
 9115 Fit       0.008494
 9116 Fit       0.008743
 9117 Fit       0.008743
 9118 Fit       0.008493
 9119 Fit       0.008045
 9120 Fit       0.007476
 9121 Fit       0.006859
 9122 Fit       0.007356
 9123 Fit       0.008089
 9124 Fit       0.008775
 9125 Fit       0.009320
 9126 Fit       0.009625
 9127 Fit       0.009625
 9128 Fit       0.009319
 9129 Fit       0.008774
 9130 Fit       0.008088
 9131 Fit       0.007355
 9132 Fit       0.007797
 9133 Fit       0.008630
 9134 Fit       0.009414
 9135 Fit       0.010039
 9136 Fit       0.010390
 9137 Fit       0.010390
 9138 Fit       0.010038
 9139 Fit       0.009413
 9140 Fit       0.008629
 9141 Fit       0.007796
 9142 Fit       0.008155
 9143 Fit       0.009060
 9144 Fit       0.009908
 9145 Fit       0.010583
 9146 Fit       0.010961
 9147 Fit       0.010961
 9148 Fit       0.010582
 9149 Fit       0.009907
 9150 Fit       0.009059
 9151 Fit       0.008153
 9152 Fit       0.008419
 9153 Fit       0.009366
 9154 Fit       0.010244
 9155 Fit       0.010937
 9156 Fit       0.011322
 9157 Fit       0.011322
 9158 Fit       0.010936
 9159 Fit       0.010243
 9160 Fit       0.009365
 9161 Fit       0.008417
 9162 Fit       0.008596
 9163 Fit       0.009564
 9164 Fit       0.010450
 9165 Fit       0.011140
 9166 Fit       0.011521
 9167 Fit       0.011521
 9168 Fit       0.011139
 9169 Fit       0.010449
 9170 Fit       0.009562
 9171 Fit       0.008595
 9172 Fit       0.009685
 9173 Fit       0.010573
 9174 Fit       0.011258
 9175 Fit       0.011634
 9176 Fit       0.011633
 9177 Fit       0.011257
 9178 Fit       0.010572
 9179 Fit       0.009684
 9180 Fit       0.010650
 9181 Fit       0.011339
 9182 Fit       0.011715
 9183 Fit       0.011714
 9184 Fit       0.011338
 9185 Fit       0.010649
 9186 Fit       0.009771
 9187 Fit       0.010684
 9188 Fit       0.011386
 9189 Fit       0.011769
 9190 Fit       0.011769
 9191 Fit       0.011385
 9192 Fit       0.010683
 9193 Fit       0.009769
 9194 Fit       0.009714
 9195 Fit       0.010643
 9196 Fit       0.011358
 9197 Fit       0.011750
 9198 Fit       0.011749
 9199 Fit       0.011357
 9200 Fit       0.010641
 9201 Fit       0.009712
 9202 Fit       0.009545
 9203 Fit       0.010473
 9204 Fit       0.011190
 9205 Fit       0.011583
 9206 Fit       0.011583
 9207 Fit       0.011189
 9208 Fit       0.010471
 9209 Fit       0.009543
 9210 Fit       0.009233
 9211 Fit       0.010131
 9212 Fit       0.010825
 9213 Fit       0.011206
 9214 Fit       0.011206
 9215 Fit       0.010824
 9216 Fit       0.010130
 9217 Fit       0.009232
 9218 Fit       0.008770
 9219 Fit       0.009605
 9220 Fit       0.010248
 9221 Fit       0.010600
 9222 Fit       0.010600
 9223 Fit       0.010247
 9224 Fit       0.009604
 9225 Fit       0.008769
 9226 Fit       0.008175
 9227 Fit       0.008921
 9228 Fit       0.009491
 9229 Fit       0.009801
 9230 Fit       0.009801
 9231 Fit       0.009490
 9232 Fit       0.008919
 9233 Fit       0.008174
 9234 Fit       0.008131
 9235 Fit       0.008617
 9236 Fit       0.008880
 9237 Fit       0.008880
 9238 Fit       0.008616
 9239 Fit       0.008130
 9240 Fit       0.007915
 9241 Fit       0.007914
 9242 Fit       0.006986
 9243 Fit       0.006986
 9244 Fit       0.007161
 9245 Fit       0.007472
 9246 Fit       0.007641
 9247 Fit       0.007641
 9248 Fit       0.007472
 9249 Fit       0.007160
 9250 Fit       0.007704
 9251 Fit       0.008071
 9252 Fit       0.008271
 9253 Fit       0.008271
 9254 Fit       0.008071
 9255 Fit       0.007704
 9256 Fit       0.007644
 9257 Fit       0.008186
 9258 Fit       0.008601
 9259 Fit       0.008827
 9260 Fit       0.008827
 9261 Fit       0.008601
 9262 Fit       0.008186
 9263 Fit       0.007643
 9264 Fit       0.007990
 9265 Fit       0.008578
 9266 Fit       0.009026
 9267 Fit       0.009270
 9268 Fit       0.009270
 9269 Fit       0.009026
 9270 Fit       0.008577
 9271 Fit       0.007989
 9272 Fit       0.008867
 9273 Fit       0.009335
 9274 Fit       0.009589
 9275 Fit       0.009589
 9276 Fit       0.009334
 9277 Fit       0.008866
 9278 Fit       0.009063
 9279 Fit       0.009540
 9280 Fit       0.009798
 9281 Fit       0.009798
 9282 Fit       0.009540
 9283 Fit       0.009062
 9284 Fit       0.009925
 9285 Fit       0.009925
 9286 Fit       0.009928
 9287 Fit       0.009927
 9288 Fit       0.009478
 9289 Fit       0.009743
 9290 Fit       0.009742
 9291 Fit       0.009477
 9292 Fit       0.009163
 9293 Fit       0.009418
 9294 Fit       0.009418
 9295 Fit       0.009162
 9296 Fit       0.008948
 9297 Fit       0.008948
 -----------------------------------------------------------------
 Leave Link  602 at Thu Apr 21 16:33:43 2022, MaxMem=   104857600 cpu:               0.5 elap:               0.5
 (Enter /opt/ohpc/pub/libs/gaussian/g16-A.03/haswell/g16/l9999.exe)

 Test job not archived.
 1\1\GINC-CASCADEB017\SP\RB3LYP\6-311++G(d,p)\C4H6O2\MNG228\21-Apr-2022
 \0\\#P B3LYP/6-311++G(d,p) Geom=Allcheck SCF=Tight EmpiricalDispersion
 =GD3BJ Pop=CHELPG SP IOp(6/33=2)\\MAA geo opt\\0,1\H,0,1.2091929081,1.
 490007196,1.7901551733\O,0,2.1732169471,1.5470266167,1.863159927\C,0,2
 .687214128,0.7743672077,0.8701219484\O,0,1.979948375,0.1727096441,0.09
 75919596\C,0,4.1817059707,0.7795506561,0.8769614136\C,0,4.7966583499,0
 .0513283353,-0.0583550516\H,0,5.8779890648,0.0079188622,-0.1140139845\
 H,0,4.2230895227,-0.5128278824,-0.783060692\C,0,4.9000040515,1.5910622
 346,1.9194092457\H,0,4.6305197342,2.6480024369,1.8495358608\H,0,4.6304
 19284,1.2641264684,2.9269134787\H,0,5.979941664,1.4965282245,1.7980807
 209\\Version=ES64L-G16RevA.03\State=1-A\HF=-306.5966732\RMSD=4.277e-09
 \Dipole=0.5020682,0.3313718,0.425624\Quadrupole=2.6732483,-1.2563556,-
 1.4168927,-2.2404436,-2.8784776,-0.3175422\PG=C01 [X(C4H6O2)]\\@


 WE THE UNWILLING
 LED BY THE UNQUALIFIED
 HAVE BEEN DOING THE UNBELIEVABLE SO LONG WITH SO LITTLE
 THAT WE NOW ATTEMPT THE IMPOSSIBLE WITH NOTHING.

                                    -- ANONYMOUS
 Job cpu time:       0 days  0 hours  0 minutes 45.4 seconds.
 Elapsed time:       0 days  0 hours  0 minutes 46.1 seconds.
 File lengths (MBytes):  RWF=    272 Int=      0 D2E=      0 Chk=     32 Scr=     32
 Normal termination of Gaussian 16 at Thu Apr 21 16:33:44 2022.
