 Entering Gaussian System, Link 0=g16
 Initial command:
 /opt/ohpc/pub/libs/gaussian/g16-A.03/haswell/g16/l1.exe "g16_scratch/Gau-295892.inp" -scrdir="g16_scratch/"
 Entering Link 1 = /opt/ohpc/pub/libs/gaussian/g16-A.03/haswell/g16/l1.exe PID=    295893.
  
 Copyright (c) 1988,1990,1992,1993,1995,1998,2003,2009,2016,
            Gaussian, Inc.  All Rights Reserved.
  
 This is part of the Gaussian(R) 16 program.  It is based on
 the Gaussian(R) 09 system (copyright 2009, Gaussian, Inc.),
 the Gaussian(R) 03 system (copyright 2003, Gaussian, Inc.),
 the Gaussian(R) 98 system (copyright 1998, Gaussian, Inc.),
 the Gaussian(R) 94 system (copyright 1995, Gaussian, Inc.),
 the Gaussian 92(TM) system (copyright 1992, Gaussian, Inc.),
 the Gaussian 90(TM) system (copyright 1990, Gaussian, Inc.),
 the Gaussian 88(TM) system (copyright 1988, Gaussian, Inc.),
 the Gaussian 86(TM) system (copyright 1986, Carnegie Mellon
 University), and the Gaussian 82(TM) system (copyright 1983,
 Carnegie Mellon University). Gaussian is a federally registered
 trademark of Gaussian, Inc.
  
 This software contains proprietary and confidential information,
 including trade secrets, belonging to Gaussian, Inc.
  
 This software is provided under written license and may be
 used, copied, transmitted, or stored only in accord with that
 written license.
  
 The following legend is applicable only to US Government
 contracts under FAR:
  
                    RESTRICTED RIGHTS LEGEND
  
 Use, reproduction and disclosure by the US Government is
 subject to restrictions as set forth in subparagraphs (a)
 and (c) of the Commercial Computer Software - Restricted
 Rights clause in FAR 52.227-19.
  
 Gaussian, Inc.
 340 Quinnipiac St., Bldg. 40, Wallingford CT 06492
  
  
 ---------------------------------------------------------------
 Warning -- This program may not be used in any manner that
 competes with the business of Gaussian, Inc. or will provide
 assistance to any competitor of Gaussian, Inc.  The licensee
 of this program is prohibited from giving any competitor of
 Gaussian, Inc. access to this program.  By using this program,
 the user acknowledges that Gaussian, Inc. is engaged in the
 business of creating and licensing software in the field of
 computational chemistry and represents and warrants to the
 licensee that it is not a competitor of Gaussian, Inc. and that
 it will not use this program in any manner prohibited above.
 ---------------------------------------------------------------
  

 Cite this work as:
 Gaussian 16, Revision A.03,
 M. J. Frisch, G. W. Trucks, H. B. Schlegel, G. E. Scuseria, 
 M. A. Robb, J. R. Cheeseman, G. Scalmani, V. Barone, 
 G. A. Petersson, H. Nakatsuji, X. Li, M. Caricato, A. V. Marenich, 
 J. Bloino, B. G. Janesko, R. Gomperts, B. Mennucci, H. P. Hratchian, 
 J. V. Ortiz, A. F. Izmaylov, J. L. Sonnenberg, D. Williams-Young, 
 F. Ding, F. Lipparini, F. Egidi, J. Goings, B. Peng, A. Petrone, 
 T. Henderson, D. Ranasinghe, V. G. Zakrzewski, J. Gao, N. Rega, 
 G. Zheng, W. Liang, M. Hada, M. Ehara, K. Toyota, R. Fukuda, 
 J. Hasegawa, M. Ishida, T. Nakajima, Y. Honda, O. Kitao, H. Nakai, 
 T. Vreven, K. Throssell, J. A. Montgomery, Jr., J. E. Peralta, 
 F. Ogliaro, M. J. Bearpark, J. J. Heyd, E. N. Brothers, K. N. Kudin, 
 V. N. Staroverov, T. A. Keith, R. Kobayashi, J. Normand, 
 K. Raghavachari, A. P. Rendell, J. C. Burant, S. S. Iyengar, 
 J. Tomasi, M. Cossi, J. M. Millam, M. Klene, C. Adamo, R. Cammi, 
 J. W. Ochterski, R. L. Martin, K. Morokuma, O. Farkas, 
 J. B. Foresman, and D. J. Fox, Gaussian, Inc., Wallingford CT, 2016.
 
 ******************************************
 Gaussian 16:  ES64L-G16RevA.03 25-Dec-2016
                21-Apr-2022 
 ******************************************
 %Mem=192GB
 %NProcShared=48
 Will use up to   48 processors via shared memory.
 %Chk=MAA-1.chk
 ---------------------------------------------------------------------
 #n B3LYP/6-311++G(d,p) Opt freq EmpiricalDispersion=GD3BJ IOp(6/33=2)
 ---------------------------------------------------------------------
 1/18=20,19=15,26=3,38=1/1,3;
 2/9=110,12=2,17=6,18=5,40=1/2;
 3/5=4,6=6,7=1111,11=2,25=1,30=1,71=1,74=-5,124=41/1,2,3;
 4//1;
 5/5=2,38=5/2;
 6/7=2,8=2,9=2,10=2,28=1,33=2/1;
 7//1,2,3,16;
 1/18=20,19=15,26=3/3(2);
 2/9=110/2;
 99//99;
 2/9=110/2;
 3/5=4,6=6,7=1111,11=2,25=1,30=1,71=1,74=-5,124=41/1,2,3;
 4/5=5,16=3,69=1/1;
 5/5=2,38=5/2;
 7//1,2,3,16;
 1/18=20,19=15,26=3/3(-5);
 2/9=110/2;
 6/7=2,8=2,9=2,10=2,19=2,28=1,33=2/1;
 99/9=1/99;
 -----------
 MAA geo opt
 -----------
 Symbolic Z-matrix:
 Charge =  0 Multiplicity = 1
 H                     1.1384   -0.0604    0.3917 
 O                     2.0954   -0.2265    0.2706 
 C                     2.6818    0.8023    0.9064 
 O                     2.0178    1.6618    1.4577 
 C                     4.1635    0.7634    0.8563 
 C                     4.8233    0.0446   -0.067 
 H                     5.9076    0.0228   -0.0953 
 H                     4.3053   -0.542    -0.8201 
 C                     4.8686    1.5753    1.8991 
 H                     4.6013    2.6334    1.8104 
 H                     4.6012    1.2296    2.9032 
 H                     5.9576    1.5011    1.8038 
 

 GradGradGradGradGradGradGradGradGradGradGradGradGradGradGradGradGradGrad
 Berny optimization.
 Initialization pass.
                           ----------------------------
                           !    Initial Parameters    !
                           ! (Angstroms and Degrees)  !
 --------------------------                            --------------------------
 ! Name  Definition              Value          Derivative Info.                !
 --------------------------------------------------------------------------------
 ! R1    R(1,2)                  0.9788         estimate D2E/DX2                !
 ! R2    R(2,3)                  1.3441         estimate D2E/DX2                !
 ! R3    R(3,4)                  1.218          estimate D2E/DX2                !
 ! R4    R(3,5)                  1.4831         estimate D2E/DX2                !
 ! R5    R(5,6)                  1.3433         estimate D2E/DX2                !
 ! R6    R(5,9)                  1.4979         estimate D2E/DX2                !
 ! R7    R(6,7)                  1.0849         estimate D2E/DX2                !
 ! R8    R(6,8)                  1.0861         estimate D2E/DX2                !
 ! R9    R(9,10)                 1.0949         estimate D2E/DX2                !
 ! R10   R(9,11)                 1.0951         estimate D2E/DX2                !
 ! R11   R(9,12)                 1.0957         estimate D2E/DX2                !
 ! A1    A(1,2,3)              103.777          estimate D2E/DX2                !
 ! A2    A(2,3,4)              121.091          estimate D2E/DX2                !
 ! A3    A(2,3,5)              113.5675         estimate D2E/DX2                !
 ! A4    A(4,3,5)              125.3415         estimate D2E/DX2                !
 ! A5    A(3,5,6)              121.869          estimate D2E/DX2                !
 ! A6    A(3,5,9)              115.6297         estimate D2E/DX2                !
 ! A7    A(6,5,9)              122.5014         estimate D2E/DX2                !
 ! A8    A(5,6,7)              121.3047         estimate D2E/DX2                !
 ! A9    A(5,6,8)              122.0964         estimate D2E/DX2                !
 ! A10   A(7,6,8)              116.5989         estimate D2E/DX2                !
 ! A11   A(5,9,10)             110.6386         estimate D2E/DX2                !
 ! A12   A(5,9,11)             110.6264         estimate D2E/DX2                !
 ! A13   A(5,9,12)             111.7522         estimate D2E/DX2                !
 ! A14   A(10,9,11)            108.6465         estimate D2E/DX2                !
 ! A15   A(10,9,12)            107.5196         estimate D2E/DX2                !
 ! A16   A(11,9,12)            107.5216         estimate D2E/DX2                !
 ! D1    D(1,2,3,4)             -0.0054         estimate D2E/DX2                !
 ! D2    D(1,2,3,5)            179.9885         estimate D2E/DX2                !
 ! D3    D(2,3,5,6)             19.99           estimate D2E/DX2                !
 ! D4    D(2,3,5,9)           -160.0088         estimate D2E/DX2                !
 ! D5    D(4,3,5,6)           -160.0165         estimate D2E/DX2                !
 ! D6    D(4,3,5,9)             19.9847         estimate D2E/DX2                !
 ! D7    D(3,5,6,7)            179.9924         estimate D2E/DX2                !
 ! D8    D(3,5,6,8)             -0.0112         estimate D2E/DX2                !
 ! D9    D(9,5,6,7)             -0.0089         estimate D2E/DX2                !
 ! D10   D(9,5,6,8)            179.9876         estimate D2E/DX2                !
 ! D11   D(3,5,9,10)           -60.2271         estimate D2E/DX2                !
 ! D12   D(3,5,9,11)            60.2254         estimate D2E/DX2                !
 ! D13   D(3,5,9,12)           179.9963         estimate D2E/DX2                !
 ! D14   D(6,5,9,10)           119.7741         estimate D2E/DX2                !
 ! D15   D(6,5,9,11)          -119.7734         estimate D2E/DX2                !
 ! D16   D(6,5,9,12)            -0.0025         estimate D2E/DX2                !
 --------------------------------------------------------------------------------
 Trust Radius=3.00D-01 FncErr=1.00D-07 GrdErr=1.00D-06 EigMax=2.50D+02 EigMin=1.00D-04
 Number of steps in this run=     53 maximum allowed number of steps=    100.
 GradGradGradGradGradGradGradGradGradGradGradGradGradGradGradGradGradGrad

                          Input orientation:                          
 ---------------------------------------------------------------------
 Center     Atomic      Atomic             Coordinates (Angstroms)
 Number     Number       Type             X           Y           Z
 ---------------------------------------------------------------------
      1          1           0        1.138400   -0.060400    0.391700
      2          8           0        2.095400   -0.226500    0.270600
      3          6           0        2.681800    0.802300    0.906400
      4          8           0        2.017800    1.661800    1.457700
      5          6           0        4.163500    0.763400    0.856300
      6          6           0        4.823300    0.044600   -0.067000
      7          1           0        5.907600    0.022800   -0.095300
      8          1           0        4.305300   -0.542000   -0.820100
      9          6           0        4.868600    1.575300    1.899100
     10          1           0        4.601300    2.633400    1.810400
     11          1           0        4.601200    1.229600    2.903200
     12          1           0        5.957600    1.501100    1.803800
 ---------------------------------------------------------------------
                    Distance matrix (angstroms):
                    1          2          3          4          5
     1  H    0.000000
     2  O    0.978828   0.000000
     3  C    1.841535   1.344074   0.000000
     4  O    2.208093   2.231794   1.218018   0.000000
     5  C    3.169500   2.366429   1.483057   2.402672   0.000000
     6  C    3.714824   2.762048   2.471364   3.579228   1.343314
     7  H    4.794722   3.837825   3.466527   4.497630   2.120357
     8  H    3.424858   2.484517   2.724646   3.908678   2.129435
     9  C    4.343059   3.686344   2.522910   2.886066   1.497925
    10  H    4.610959   4.102383   2.802610   2.782602   2.144499
    11  H    4.467966   3.915334   2.802480   2.991692   2.144463
    12  H    5.258992   4.500210   3.467638   3.958236   2.158878
                    6          7          8          9         10
     6  C    0.000000
     7  H    1.084888   0.000000
     8  H    1.086086   1.847079   0.000000
     9  C    2.492116   2.732656   3.492036   0.000000
    10  H    3.205589   3.486165   4.134043   1.094940   0.000000
    11  H    3.205564   3.486266   4.133895   1.095093   1.779007
    12  H    2.628292   2.407167   3.713382   1.095677   1.766832
                   11         12
    11  H    0.000000
    12  H    1.766979   0.000000
 Stoichiometry    C4H6O2
 Framework group  C1[X(C4H6O2)]
 Deg. of freedom    30
 Full point group                 C1      NOp   1
 Largest Abelian subgroup         C1      NOp   1
 Largest concise Abelian subgroup C1      NOp   1
                         Standard orientation:                         
 ---------------------------------------------------------------------
 Center     Atomic      Atomic             Coordinates (Angstroms)
 Number     Number       Type             X           Y           Z
 ---------------------------------------------------------------------
      1          1           0        2.450206    0.492575    0.193925
      2          8           0        1.549532    0.873969    0.231712
      3          6           0        0.747372   -0.173416   -0.025310
      4          8           0        1.207553   -1.281292   -0.236051
      5          6           0       -0.695478    0.169541   -0.020664
      6          6           0       -1.124635    1.433114   -0.174606
      7          1           0       -2.182507    1.673668   -0.169867
      8          1           0       -0.437712    2.263489   -0.309509
      9          6           0       -1.634653   -0.982321    0.166268
     10          1           0       -1.511485   -1.715139   -0.637909
     11          1           0       -1.449579   -1.479415    1.124325
     12          1           0       -2.681242   -0.658104    0.159614
 ---------------------------------------------------------------------
 Rotational constants (GHZ):           5.4103752           3.4084723           2.1683293
 Standard basis: 6-311++G(d,p) (5D, 7F)
 There are   180 symmetry adapted cartesian basis functions of A   symmetry.
 There are   174 symmetry adapted basis functions of A   symmetry.
   174 basis functions,   270 primitive gaussians,   180 cartesian basis functions
    23 alpha electrons       23 beta electrons
       nuclear repulsion energy       228.5041378876 Hartrees.
 NAtoms=   12 NActive=   12 NUniq=   12 SFac= 1.00D+00 NAtFMM=   60 NAOKFM=F Big=F
 Integral buffers will be    131072 words long.
 Raffenetti 2 integral format.
 Two-electron integral symmetry is turned on.
 Nuclear repulsion after empirical dispersion term =      228.4889384309 Hartrees.
 One-electron integrals computed using PRISM.
 NBasis=   174 RedAO= T EigKep=  1.63D-05  NBF=   174
 NBsUse=   174 1.00D-06 EigRej= -1.00D+00 NBFU=   174
 ExpMin= 3.60D-02 ExpMax= 8.59D+03 ExpMxC= 1.30D+03 IAcc=3 IRadAn=         5 AccDes= 0.00D+00
 Harris functional with IExCor=  402 and IRadAn=       5 diagonalized for initial guess.
 HarFok:  IExCor=  402 AccDes= 0.00D+00 IRadAn=         5 IDoV= 1 UseB2=F ITyADJ=14
 ICtDFT=  3500011 ScaDFX=  1.000000  1.000000  1.000000  1.000000
 FoFCou: FMM=F IPFlag=           0 FMFlag=      100000 FMFlg1=           0
         NFxFlg=           0 DoJE=T BraDBF=F KetDBF=T FulRan=T
         wScrn=  0.000000 ICntrl=       500 IOpCl=  0 I1Cent=   200000004 NGrid=           0
         NMat0=    1 NMatS0=      1 NMatT0=    0 NMatD0=    1 NMtDS0=    0 NMtDT0=    0
 Petite list used in FoFCou.
 Keep R1 ints in memory in canonical form, NReq=164304793.
 Requested convergence on RMS density matrix=1.00D-08 within 128 cycles.
 Requested convergence on MAX density matrix=1.00D-06.
 Requested convergence on             energy=1.00D-06.
 No special actions if energy rises.
 SCF Done:  E(RB3LYP) =  -306.595377378     A.U. after   13 cycles
            NFock= 13  Conv=0.40D-08     -V/T= 2.0040
 SCF density gives NOpUse=  1 NOpAll=  1.

 **********************************************************************

            Population analysis using the SCF density.

 **********************************************************************

 Orbital symmetries:
 BldTbl:  Degeneracy threshold= 1.00D-02
       Occupied  (A) (A) (A) (A) (A) (A) (A) (A) (A) (A) (A) (A)
                 (A) (A) (A) (A) (A) (A) (A) (A) (A) (A) (A)
       Virtual   (A) (A) (A) (A) (A) (A) (A) (A) (A) (A) (A) (A)
                 (A) (A) (A) (A) (A) (A) (A) (A) (A) (A) (A) (A)
                 (A) (A) (A) (A) (A) (A) (A) (A) (A) (A) (A) (A)
                 (A) (A) (A) (A) (A) (A) (A) (A) (A) (A) (A) (A)
                 (A) (A) (A) (A) (A) (A) (A) (A) (A) (A) (A) (A)
                 (A) (A) (A) (A) (A) (A) (A) (A) (A) (A) (A) (A)
                 (A) (A) (A) (A) (A) (A) (A) (A) (A) (A) (A) (A)
                 (A) (A) (A) (A) (A) (A) (A) (A) (A) (A) (A) (A)
                 (A) (A) (A) (A) (A) (A) (A) (A) (A) (A) (A) (A)
                 (A) (A) (A) (A) (A) (A) (A) (A) (A) (A) (A) (A)
                 (A) (A) (A) (A) (A) (A) (A) (A) (A) (A) (A) (A)
                 (A) (A) (A) (A) (A) (A) (A) (A) (A) (A) (A) (A)
                 (A) (A) (A) (A) (A) (A) (A)
 The electronic state is 1-A.
 Alpha  occ. eigenvalues --  -19.18177 -19.12307 -10.31592 -10.20887 -10.19325
 Alpha  occ. eigenvalues --  -10.17709  -1.12567  -1.02762  -0.82807  -0.70770
 Alpha  occ. eigenvalues --   -0.67094  -0.57217  -0.50748  -0.49899  -0.47189
 Alpha  occ. eigenvalues --   -0.44864  -0.42521  -0.42246  -0.38971  -0.38179
 Alpha  occ. eigenvalues --   -0.33531  -0.29515  -0.28493
 Alpha virt. eigenvalues --   -0.06349  -0.01121  -0.00025   0.01615   0.03121
 Alpha virt. eigenvalues --    0.03251   0.04762   0.05636   0.06220   0.07183
 Alpha virt. eigenvalues --    0.08255   0.08513   0.09710   0.10420   0.11349
 Alpha virt. eigenvalues --    0.12338   0.12762   0.13424   0.13793   0.14536
 Alpha virt. eigenvalues --    0.14985   0.15622   0.18128   0.19319   0.19691
 Alpha virt. eigenvalues --    0.20068   0.20725   0.21752   0.22400   0.23339
 Alpha virt. eigenvalues --    0.25798   0.26093   0.28516   0.29281   0.29623
 Alpha virt. eigenvalues --    0.30371   0.33582   0.34141   0.35155   0.37487
 Alpha virt. eigenvalues --    0.37988   0.42945   0.44592   0.46200   0.48314
 Alpha virt. eigenvalues --    0.51405   0.53394   0.54014   0.56335   0.60785
 Alpha virt. eigenvalues --    0.61347   0.62289   0.64521   0.64808   0.67468
 Alpha virt. eigenvalues --    0.69415   0.72609   0.73138   0.74738   0.80769
 Alpha virt. eigenvalues --    0.82510   0.85403   0.87178   0.89190   0.96145
 Alpha virt. eigenvalues --    0.98705   1.04142   1.06324   1.10508   1.10961
 Alpha virt. eigenvalues --    1.15906   1.16345   1.19324   1.21128   1.27036
 Alpha virt. eigenvalues --    1.32639   1.37779   1.41760   1.41981   1.45515
 Alpha virt. eigenvalues --    1.45932   1.49550   1.53828   1.56494   1.58295
 Alpha virt. eigenvalues --    1.58879   1.61105   1.63064   1.65588   1.70527
 Alpha virt. eigenvalues --    1.76201   1.79288   1.81915   1.83916   1.87594
 Alpha virt. eigenvalues --    1.89946   1.98198   2.00484   2.06305   2.08684
 Alpha virt. eigenvalues --    2.10904   2.13601   2.24850   2.31663   2.34367
 Alpha virt. eigenvalues --    2.44363   2.46528   2.51150   2.53328   2.53608
 Alpha virt. eigenvalues --    2.56427   2.59222   2.63787   2.66986   2.72067
 Alpha virt. eigenvalues --    2.73203   2.75974   2.84978   2.86259   2.94162
 Alpha virt. eigenvalues --    2.95019   2.98156   3.03480   3.06016   3.12823
 Alpha virt. eigenvalues --    3.17405   3.23047   3.34444   3.37818   3.53971
 Alpha virt. eigenvalues --    3.62195   3.69390   3.75026   3.78035   3.80434
 Alpha virt. eigenvalues --    3.82067   4.06426   4.23838   4.30958   4.94844
 Alpha virt. eigenvalues --    5.03944   5.16697   5.39581   5.57613   5.83651
 Alpha virt. eigenvalues --   23.69556  23.81417  23.95682  24.19466  49.84794
 Alpha virt. eigenvalues --   50.00208
          Condensed to atoms (all electrons):
               1          2          3          4          5          6
     1  H    0.458829   0.250183   0.034876  -0.004444  -0.023238   0.013171
     2  O    0.250183   8.114306   0.325433  -0.143918  -0.402351   0.028087
     3  C    0.034876   0.325433   6.146503   0.419001  -0.738643   0.273057
     4  O   -0.004444  -0.143918   0.419001   8.102261  -0.088811  -0.008742
     5  C   -0.023238  -0.402351  -0.738643  -0.088811   7.088783  -0.587333
     6  C    0.013171   0.028087   0.273057  -0.008742  -0.587333   6.706123
     7  H   -0.000122   0.002289   0.038938   0.000470  -0.023038   0.336885
     8  H   -0.002976  -0.005911  -0.049236   0.002909   0.035651   0.343611
     9  C   -0.010177   0.005581  -0.308368   0.023590   0.130120  -0.552691
    10  H    0.000284  -0.000434   0.011695  -0.003143   0.005811  -0.027914
    11  H   -0.000899  -0.001483   0.012422  -0.004073  -0.025439  -0.007784
    12  H    0.000404  -0.001504  -0.024354   0.000809  -0.093404   0.022800
               7          8          9         10         11         12
     1  H   -0.000122  -0.002976  -0.010177   0.000284  -0.000899   0.000404
     2  O    0.002289  -0.005911   0.005581  -0.000434  -0.001483  -0.001504
     3  C    0.038938  -0.049236  -0.308368   0.011695   0.012422  -0.024354
     4  O    0.000470   0.002909   0.023590  -0.003143  -0.004073   0.000809
     5  C   -0.023038   0.035651   0.130120   0.005811  -0.025439  -0.093404
     6  C    0.336885   0.343611  -0.552691  -0.027914  -0.007784   0.022800
     7  H    0.533642  -0.028030   0.000042   0.000164   0.003879  -0.000088
     8  H   -0.028030   0.507275   0.026289  -0.001290  -0.002668   0.002893
     9  C    0.000042   0.026289   6.149655   0.375061   0.380058   0.426126
    10  H    0.000164  -0.001290   0.375061   0.541309  -0.045065  -0.027599
    11  H    0.003879  -0.002668   0.380058  -0.045065   0.560447  -0.032917
    12  H   -0.000088   0.002893   0.426126  -0.027599  -0.032917   0.581865
 Mulliken charges:
               1
     1  H    0.284108
     2  O   -0.170277
     3  C   -0.141322
     4  O   -0.295910
     5  C    0.721892
     6  C   -0.539269
     7  H    0.134969
     8  H    0.171483
     9  C   -0.645287
    10  H    0.171122
    11  H    0.163521
    12  H    0.144970
 Sum of Mulliken charges =  -0.00000
 Mulliken charges with hydrogens summed into heavy atoms:
               1
     2  O    0.113832
     3  C   -0.141322
     4  O   -0.295910
     5  C    0.721892
     6  C   -0.232818
     9  C   -0.165674
 DipInt: DoE/N= T F RetVal/Mat= T F Init=T NMatP=  1 IDeriv=0 Min/MaxMlt=  0  4
 Entering OneElI...
 OneElI was handed 25769718324 working-precision words.
 Multipole integrals L=0 to 4 MinM= 0 MaxM= 0.
 Requested accuracy = 0.1000D-12
 ShPair: Thresh= 1.00D-13 NBox=     0 BxSize= 0.00D+00 RnKept= 9.94D+00
         NSMCal=                 2211 NSMKep=                2175
 PrmmSu-InSpLW:  IPartL=    0 NPrtUS=    1 NPrtUL=    1 DoSpLW=F IThBeg=    0 IThEnd=    0 NThAct=    1.
 PrsmSu:  NPrtUS=   1 ThrOK=F IAlg=1 NPAlg=1 LenDen=           0 ISkipM=0 DoSpLW=F IThBeg=    0 IThEnd=    0.
 Prism:   IPart=     0 DynPar=F LinDyn=F Incr=          21.
 PRISM was handed 25769569152 working-precision words and  2175 shell-pairs
 IPart=  0 NShTot=        2175 NBatch=          55 AvBLen=        39.5
 PrsmSu-ThDecC:  IPartSL=    0    0 NPrtUSL=    1    1 IThBeg=    0 IThEnd=    0 CPU=   -1 GPU=   -1 NThAct=    1.
 PrSmSu:  NxtVal=             22.
 Electronic moments (au):
        -46.00000000         -0.37780571          0.60630070          0.11949815
       -319.94292014       -212.84190913        -38.58616004          1.67184031
          0.44142546         -1.17823119        110.91614891        -46.77753596
         -6.10958230         89.86196198         32.79038675        -32.78862160
         18.75136480         12.09165644         27.98814624        -75.52619442
      -3963.47132888      -2071.51180540       -162.67900866       -404.08924202
          2.72117469        322.78435051         41.57798402         19.30116051
         22.65109685      -1535.25119625       -297.00058368       -226.68748649
         -5.84764677          1.66128433        -37.27914865
 Electronic spatial extent (au):  <R**2>=            571.3710
 DipInt: DoE/N= F T RetVal/Mat= T F Init=T NMatP=  1 IDeriv=0 Min/MaxMlt=  0  4
 Nuclear    moments (au):
         46.00000000         -0.00000000          0.00000000          0.00000000
        297.40586055        183.69713828         11.03193074          0.00000000
         -0.00000000         -0.00000000        -80.64229150         56.14021639
          7.61405781        -97.99779108        -23.73408407         35.37119582
        -12.15031737        -16.18230360        -28.63045442         73.94248453
       3046.96439764       1338.00748039         23.38421055        426.83823333
         13.11573835       -313.51885312        -46.53706778        -20.64991889
        -20.18566767       1215.03733916         83.01764373         78.44559314
          3.05299039          2.89973242         44.87070173
 Total      moments (au):
          0.00000000         -0.37780571          0.60630070          0.11949815
        -22.53705958        -29.14477084        -27.55422930          1.67184031
          0.44142546         -1.17823119         30.27385741          9.36268042
          1.50447551         -8.13582911          9.05630267          2.58257422
          6.60104742         -4.09064716         -0.64230818         -1.58370989
       -916.50693124       -733.50432501       -139.29479811         22.74899131
         15.83691304          9.26549739         -4.95908376         -1.34875838
          2.46542917       -320.21385709       -213.98293995       -148.24189335
         -2.79465638          4.56101675          7.59155308
 Traceless Quadrup. (au):
          3.87496033         -2.73275093         -1.14220939          1.67184031
          0.44142546         -1.17823119
 Charge=              0.0000 electrons
 Dipole moment (field-independent basis, Debye):
    X=             -0.9603    Y=              1.5411    Z=              0.3037  Tot=              1.8410
 Quadrupole moment (field-independent basis, Debye-Ang):
   XX=            -30.3131   YY=            -39.2007   ZZ=            -37.0614
   XY=              2.2487   XZ=              0.5937   YZ=             -1.5848
 Traceless Quadrupole moment (field-independent basis, Debye-Ang):
   XX=              5.2120   YY=             -3.6756   ZZ=             -1.5363
   XY=              2.2487   XZ=              0.5937   YZ=             -1.5848
 Octapole moment (field-independent basis, Debye-Ang**2):
  XXX=             21.5478  YYY=              6.6640  ZZZ=              1.0708  XYY=             -5.7908
  XXY=              6.4459  XXZ=              1.8382  XZZ=              4.6984  YZZ=             -2.9116
  YYZ=             -0.4572  XYZ=             -1.1272
 Hexadecapole moment (field-independent basis, Debye-Ang**3):
 XXXX=           -345.2005 YYYY=           -276.2729 ZZZZ=            -52.4651 XXXY=              8.5684
 XXXZ=              5.9649 YYYX=              3.4898 YYYZ=             -1.8678 ZZZX=             -0.5080
 ZZZY=              0.9286 XXYY=           -120.6079 XXZZ=            -80.5962 YYZZ=            -55.8350
 XXYZ=             -1.0526 YYXZ=              1.7179 ZZXY=              2.8593
 N-N= 2.284889384309D+02 E-N=-1.174445780469D+03  KE= 3.053837374910D+02
 Entering OneElI...
 OneElI was handed 25769736252 working-precision words.
 Calculate electrostatic properties
    NBasis =   174  MinDer = 0  MaxDer = 0
    NGrid  =    12  NMatD  =   1
 Requested accuracy = 0.1000D-12
 ShPair: Thresh= 1.00D-13 NBox=     0 BxSize= 0.00D+00 RnKept= 9.94D+00
         NSMCal=                 2211 NSMKep=                2109
 PrmmSu-InSpLW:  IPartL=    0 NPrtUS=   48 NPrtUL=    1 DoSpLW=F IThBeg=    0 IThEnd=   47 NThAct=   48.
 PrsmSu:  NPrtUS=  48 ThrOK=T IAlg=1 NPAlg=1 LenDen=           0 ISkipM=0 DoSpLW=F IThBeg=    0 IThEnd=   47.
 Prism:   IPart=     0 DynPar=F LinDyn=F Incr=           5.
 PRISM was handed   536820747 working-precision words and  2109 shell-pairs
 PRISM was handed   536820747 working-precision words and  2109 shell-pairs
 PRISM was handed   536820747 working-precision words and  2109 shell-pairs
 PRISM was handed   536820747 working-precision words and  2109 shell-pairs
 PRISM was handed   536820747 working-precision words and  2109 shell-pairs
 PRISM was handed   536820747 working-precision words and  2109 shell-pairs
 PRISM was handed   536820747 working-precision words and  2109 shell-pairs
 PRISM was handed   536820747 working-precision words and  2109 shell-pairs
 PRISM was handed   536820747 working-precision words and  2109 shell-pairs
 PRISM was handed   536820747 working-precision words and  2109 shell-pairs
 PRISM was handed   536820747 working-precision words and  2109 shell-pairs
 PRISM was handed   536820747 working-precision words and  2109 shell-pairs
 PRISM was handed   536820747 working-precision words and  2109 shell-pairs
 PRISM was handed   536820747 working-precision words and  2109 shell-pairs
 PRISM was handed   536820747 working-precision words and  2109 shell-pairs
 PRISM was handed   536820747 working-precision words and  2109 shell-pairs
 PRISM was handed   536820747 working-precision words and  2109 shell-pairs
 PRISM was handed   536820747 working-precision words and  2109 shell-pairs
 PRISM was handed   536820747 working-precision words and  2109 shell-pairs
 PRISM was handed   536820747 working-precision words and  2109 shell-pairs
 PRISM was handed   536820747 working-precision words and  2109 shell-pairs
 PRISM was handed   536820747 working-precision words and  2109 shell-pairs
 PRISM was handed   536820747 working-precision words and  2109 shell-pairs
 PRISM was handed   536820747 working-precision words and  2109 shell-pairs
 PRISM was handed   536820747 working-precision words and  2109 shell-pairs
 PRISM was handed   536820747 working-precision words and  2109 shell-pairs
 PRISM was handed   536820747 working-precision words and  2109 shell-pairs
 PRISM was handed   536820747 working-precision words and  2109 shell-pairs
 PRISM was handed   536820747 working-precision words and  2109 shell-pairs
 PRISM was handed   536820747 working-precision words and  2109 shell-pairs
 PRISM was handed   536820747 working-precision words and  2109 shell-pairs
 PRISM was handed   536820747 working-precision words and  2109 shell-pairs
 PRISM was handed   536820747 working-precision words and  2109 shell-pairs
 PRISM was handed   536820747 working-precision words and  2109 shell-pairs
 PRISM was handed   536820747 working-precision words and  2109 shell-pairs
 PRISM was handed   536820747 working-precision words and  2109 shell-pairs
 PRISM was handed   536820747 working-precision words and  2109 shell-pairs
 PRISM was handed   536820747 working-precision words and  2109 shell-pairs
 PRISM was handed   536820747 working-precision words and  2109 shell-pairs
 PRISM was handed   536820747 working-precision words and  2109 shell-pairs
 PRISM was handed   536820747 working-precision words and  2109 shell-pairs
 PRISM was handed   536820747 working-precision words and  2109 shell-pairs
 PRISM was handed   536820747 working-precision words and  2109 shell-pairs
 PRISM was handed   536820747 working-precision words and  2109 shell-pairs
 PRISM was handed   536820747 working-precision words and  2109 shell-pairs
 PRISM was handed   536820747 working-precision words and  2109 shell-pairs
 PRISM was handed   536820747 working-precision words and  2109 shell-pairs
 PRISM was handed   536820747 working-precision words and  2109 shell-pairs
 IPart= 32 NShTot=         420 NBatch=          35 AvBLen=        12.0
 PrsmSu-ThDecC:  IPartSL=   32    0 NPrtUSL=   48    1 IThBeg=    0 IThEnd=   47 CPU=   -1 GPU=   -1 NThAct=   48.
 IPart= 11 NShTot=         600 NBatch=          50 AvBLen=        12.0
 PrsmSu-ThDecC:  IPartSL=   11    0 NPrtUSL=   48    1 IThBeg=    0 IThEnd=   47 CPU=   -1 GPU=   -1 NThAct=   47.
 IPart= 10 NShTot=         600 NBatch=          50 AvBLen=        12.0
 PrsmSu-ThDecC:  IPartSL=   10    0 NPrtUSL=   48    1 IThBeg=    0 IThEnd=   47 CPU=   -1 GPU=   -1 NThAct=   46.
 IPart=  1 NShTot=         960 NBatch=          80 AvBLen=        12.0
 PrsmSu-ThDecC:  IPartSL=    1    0 NPrtUSL=   48    1 IThBeg=    0 IThEnd=   47 CPU=   -1 GPU=   -1 NThAct=   45.
 IPart=  0 NShTot=        1032 NBatch=          86 AvBLen=        12.0
 PrsmSu-ThDecC:  IPartSL=    0    0 NPrtUSL=   48    1 IThBeg=    0 IThEnd=   47 CPU=   -1 GPU=   -1 NThAct=   44.
 IPart=  8 NShTot=         612 NBatch=          51 AvBLen=        12.0
 PrsmSu-ThDecC:  IPartSL=    8    0 NPrtUSL=   48    1 IThBeg=    0 IThEnd=   47 CPU=   -1 GPU=   -1 NThAct=   43.
 IPart= 39 NShTot=         408 NBatch=          34 AvBLen=        12.0
 PrsmSu-ThDecC:  IPartSL=   39    0 NPrtUSL=   48    1 IThBeg=    0 IThEnd=   47 CPU=   -1 GPU=   -1 NThAct=   42.
 IPart= 22 NShTot=         480 NBatch=          40 AvBLen=        12.0
 PrsmSu-ThDecC:  IPartSL=   22    0 NPrtUSL=   48    1 IThBeg=    0 IThEnd=   47 CPU=   -1 GPU=   -1 NThAct=   41.
 IPart=  3 NShTot=         816 NBatch=          68 AvBLen=        12.0
 PrsmSu-ThDecC:  IPartSL=    3    0 NPrtUSL=   48    1 IThBeg=    0 IThEnd=   47 CPU=   -1 GPU=   -1 NThAct=   40.
 IPart= 19 NShTot=         504 NBatch=          42 AvBLen=        12.0
 PrsmSu-ThDecC:  IPartSL=   19    0 NPrtUSL=   48    1 IThBeg=    0 IThEnd=   47 CPU=   -1 GPU=   -1 NThAct=   39.
 IPart= 43 NShTot=         408 NBatch=          34 AvBLen=        12.0
 PrsmSu-ThDecC:  IPartSL=   43    0 NPrtUSL=   48    1 IThBeg=    0 IThEnd=   47 CPU=   -1 GPU=   -1 NThAct=   38.
 IPart= 35 NShTot=         408 NBatch=          34 AvBLen=        12.0
 PrsmSu-ThDecC:  IPartSL=   35    0 NPrtUSL=   48    1 IThBeg=    0 IThEnd=   47 CPU=   -1 GPU=   -1 NThAct=   37.
 IPart= 47 NShTot=         396 NBatch=          33 AvBLen=        12.0
 PrsmSu-ThDecC:  IPartSL=   47    0 NPrtUSL=   48    1 IThBeg=    0 IThEnd=   47 CPU=   -1 GPU=   -1 NThAct=   36.
 IPart= 41 NShTot=         408 NBatch=          34 AvBLen=        12.0
 PrsmSu-ThDecC:  IPartSL=   41    0 NPrtUSL=   48    1 IThBeg=    0 IThEnd=   47 CPU=   -1 GPU=   -1 NThAct=   35.
 IPart= 13 NShTot=         564 NBatch=          47 AvBLen=        12.0
 PrsmSu-ThDecC:  IPartSL=   13    0 NPrtUSL=   48    1 IThBeg=    0 IThEnd=   47 CPU=   -1 GPU=   -1 NThAct=   34.
 IPart= 18 NShTot=         528 NBatch=          44 AvBLen=        12.0
 PrsmSu-ThDecC:  IPartSL=   18    0 NPrtUSL=   48    1 IThBeg=    0 IThEnd=   47 CPU=   -1 GPU=   -1 NThAct=   33.
 IPart= 46 NShTot=         396 NBatch=          33 AvBLen=        12.0
 PrsmSu-ThDecC:  IPartSL=   46    0 NPrtUSL=   48    1 IThBeg=    0 IThEnd=   47 CPU=   -1 GPU=   -1 NThAct=   32.
 IPart= 26 NShTot=         444 NBatch=          37 AvBLen=        12.0
 PrsmSu-ThDecC:  IPartSL=   26    0 NPrtUSL=   48    1 IThBeg=    0 IThEnd=   47 CPU=   -1 GPU=   -1 NThAct=   31.
 IPart= 34 NShTot=         408 NBatch=          34 AvBLen=        12.0
 PrsmSu-ThDecC:  IPartSL=   34    0 NPrtUSL=   48    1 IThBeg=    0 IThEnd=   47 CPU=   -1 GPU=   -1 NThAct=   30.
 IPart= 44 NShTot=         396 NBatch=          33 AvBLen=        12.0
 PrsmSu-ThDecC:  IPartSL=   44    0 NPrtUSL=   48    1 IThBeg=    0 IThEnd=   47 CPU=   -1 GPU=   -1 NThAct=   29.
 IPart= 20 NShTot=         504 NBatch=          42 AvBLen=        12.0
 PrsmSu-ThDecC:  IPartSL=   20    0 NPrtUSL=   48    1 IThBeg=    0 IThEnd=   47 CPU=   -1 GPU=   -1 NThAct=   28.
 IPart=  6 NShTot=         660 NBatch=          55 AvBLen=        12.0
 PrsmSu-ThDecC:  IPartSL=    6    0 NPrtUSL=   48    1 IThBeg=    0 IThEnd=   47 CPU=   -1 GPU=   -1 NThAct=   27.
 IPart=  5 NShTot=         744 NBatch=          62 AvBLen=        12.0
 PrsmSu-ThDecC:  IPartSL=    5    0 NPrtUSL=   48    1 IThBeg=    0 IThEnd=   47 CPU=   -1 GPU=   -1 NThAct=   26.
 IPart= 28 NShTot=         444 NBatch=          37 AvBLen=        12.0
 IPart=  7 NShTot=         636 NBatch=          53 AvBLen=        12.0
 PrsmSu-ThDecC:  IPartSL=   28    0 NPrtUSL=   48    1 IThBeg=    0 IThEnd=   47 CPU=   -1 GPU=   -1 NThAct=   25.
 IPart= 45 NShTot=         396 NBatch=          33 AvBLen=        12.0
 PrsmSu-ThDecC:  IPartSL=    7    0 NPrtUSL=   48    1 IThBeg=    0 IThEnd=   47 CPU=   -1 GPU=   -1 NThAct=   24.
 PrsmSu-ThDecC:  IPartSL=   45    0 NPrtUSL=   48    1 IThBeg=    0 IThEnd=   47 CPU=   -1 GPU=   -1 NThAct=   23.
 IPart= 36 NShTot=         408 NBatch=          34 AvBLen=        12.0
 IPart= 40 NShTot=         408 NBatch=          34 AvBLen=        12.0
 PrsmSu-ThDecC:  IPartSL=   36    0 NPrtUSL=   48    1 IThBeg=    0 IThEnd=   47 CPU=   -1 GPU=   -1 NThAct=   22.
 PrsmSu-ThDecC:  IPartSL=   40    0 NPrtUSL=   48    1 IThBeg=    0 IThEnd=   47 CPU=   -1 GPU=   -1 NThAct=   21.
 IPart= 31 NShTot=         444 NBatch=          37 AvBLen=        12.0
 PrsmSu-ThDecC:  IPartSL=   31    0 NPrtUSL=   48    1 IThBeg=    0 IThEnd=   47 CPU=   -1 GPU=   -1 NThAct=   20.
 IPart= 15 NShTot=         552 NBatch=          46 AvBLen=        12.0
 PrsmSu-ThDecC:  IPartSL=   15    0 NPrtUSL=   48    1 IThBeg=    0 IThEnd=   47 CPU=   -1 GPU=   -1 NThAct=   19.
 IPart= 14 NShTot=         552 NBatch=          46 AvBLen=        12.0
 PrsmSu-ThDecC:  IPartSL=   14    0 NPrtUSL=   48    1 IThBeg=    0 IThEnd=   47 CPU=   -1 GPU=   -1 NThAct=   18.
 IPart= 38 NShTot=         408 NBatch=          34 AvBLen=        12.0
 PrsmSu-ThDecC:  IPartSL=   38    0 NPrtUSL=   48    1 IThBeg=    0 IThEnd=   47 CPU=   -1 GPU=   -1 NThAct=   17.
 IPart= 17 NShTot=         528 NBatch=          44 AvBLen=        12.0
 PrsmSu-ThDecC:  IPartSL=   17    0 NPrtUSL=   48    1 IThBeg=    0 IThEnd=   47 CPU=   -1 GPU=   -1 NThAct=   16.
 IPart= 12 NShTot=         588 NBatch=          49 AvBLen=        12.0
 PrsmSu-ThDecC:  IPartSL=   12    0 NPrtUSL=   48    1 IThBeg=    0 IThEnd=   47 CPU=   -1 GPU=   -1 NThAct=   15.
 IPart= 33 NShTot=         420 NBatch=          35 AvBLen=        12.0
 PrsmSu-ThDecC:  IPartSL=   33    0 NPrtUSL=   48    1 IThBeg=    0 IThEnd=   47 CPU=   -1 GPU=   -1 NThAct=   14.
 IPart=  9 NShTot=         600 NBatch=          50 AvBLen=        12.0
 PrsmSu-ThDecC:  IPartSL=    9    0 NPrtUSL=   48    1 IThBeg=    0 IThEnd=   47 CPU=   -1 GPU=   -1 NThAct=   13.
 IPart= 23 NShTot=         480 NBatch=          40 AvBLen=        12.0
 PrsmSu-ThDecC:  IPartSL=   23    0 NPrtUSL=   48    1 IThBeg=    0 IThEnd=   47 CPU=   -1 GPU=   -1 NThAct=   12.
 IPart= 25 NShTot=         456 NBatch=          38 AvBLen=        12.0
 PrsmSu-ThDecC:  IPartSL=   25    0 NPrtUSL=   48    1 IThBeg=    0 IThEnd=   47 CPU=   -1 GPU=   -1 NThAct=   11.
 IPart=  2 NShTot=         840 NBatch=          70 AvBLen=        12.0
 PrsmSu-ThDecC:  IPartSL=    2    0 NPrtUSL=   48    1 IThBeg=    0 IThEnd=   47 CPU=   -1 GPU=   -1 NThAct=   10.
 IPart= 30 NShTot=         444 NBatch=          37 AvBLen=        12.0
 PrsmSu-ThDecC:  IPartSL=   30    0 NPrtUSL=   48    1 IThBeg=    0 IThEnd=   47 CPU=   -1 GPU=   -1 NThAct=    9.
 IPart= 37 NShTot=         408 NBatch=          34 AvBLen=        12.0
 PrsmSu-ThDecC:  IPartSL=   37    0 NPrtUSL=   48    1 IThBeg=    0 IThEnd=   47 CPU=   -1 GPU=   -1 NThAct=    8.
 IPart= 27 NShTot=         444 NBatch=          37 AvBLen=        12.0
 IPart= 29 NShTot=         444 NBatch=          37 AvBLen=        12.0
 IPart= 42 NShTot=         408 NBatch=          34 AvBLen=        12.0
 IPart= 24 NShTot=         468 NBatch=          39 AvBLen=        12.0
 PrsmSu-ThDecC:  IPartSL=   27    0 NPrtUSL=   48    1 IThBeg=    0 IThEnd=   47 CPU=   -1 GPU=   -1 NThAct=    7.
 PrsmSu-ThDecC:  IPartSL=   24    0 NPrtUSL=   48    1 IThBeg=    0 IThEnd=   47 CPU=   -1 GPU=   -1 NThAct=    6.
 PrsmSu-ThDecC:  IPartSL=   29    0 NPrtUSL=   48    1 IThBeg=    0 IThEnd=   47 CPU=   -1 GPU=   -1 NThAct=    5.
 PrsmSu-ThDecC:  IPartSL=   42    0 NPrtUSL=   48    1 IThBeg=    0 IThEnd=   47 CPU=   -1 GPU=   -1 NThAct=    4.
 IPart= 16 NShTot=         540 NBatch=          45 AvBLen=        12.0
 IPart= 21 NShTot=         492 NBatch=          41 AvBLen=        12.0
 IPart=  4 NShTot=         804 NBatch=          67 AvBLen=        12.0
 PrsmSu-ThDecC:  IPartSL=   16    0 NPrtUSL=   48    1 IThBeg=    0 IThEnd=   47 CPU=   -1 GPU=   -1 NThAct=    3.
 PrsmSu-ThDecC:  IPartSL=   21    0 NPrtUSL=   48    1 IThBeg=    0 IThEnd=   47 CPU=   -1 GPU=   -1 NThAct=    2.
 PrsmSu-ThDecC:  IPartSL=    4    0 NPrtUSL=   48    1 IThBeg=    0 IThEnd=   47 CPU=   -1 GPU=   -1 NThAct=    1.
 PrSmSu:  NxtVal=            241.
 --------------------------------------------------------
       Center         ----      EFG at Nuclei      ----
                      3XX-RR        3YY-RR        3ZZ-RR
 --------------------------------------------------------
     1   Atom       -0.334512      0.109613      0.224899
     2   Atom       -1.385098      0.240298      1.144799
     3   Atom        0.260835      0.110095     -0.370930
     4   Atom        1.231152     -0.393379     -0.837773
     5   Atom        0.024093      0.234701     -0.258795
     6   Atom        0.148586      0.208604     -0.357190
     7   Atom       -0.294866      0.129205      0.165660
     8   Atom       -0.032096     -0.123005      0.155101
     9   Atom       -0.027020     -0.005202      0.032222
    10   Atom        0.143778     -0.052844     -0.090935
    11   Atom        0.134006      0.058058     -0.192065
    12   Atom       -0.257225      0.102275      0.154950
 --------------------------------------------------------
                        XY            XZ            YZ
 --------------------------------------------------------
     1   Atom        0.197027      0.015161     -0.015442
     2   Atom       -0.422326     -0.227727     -0.217616
     3   Atom       -0.199873     -0.008361      0.098417
     4   Atom        0.808833      0.258730      0.124166
     5   Atom       -0.013684      0.005481     -0.062398
     6   Atom       -0.007833     -0.006074     -0.093856
     7   Atom        0.099835      0.002132      0.001257
     8   Atom       -0.222048      0.038014      0.045539
     9   Atom       -0.075958      0.010145      0.017788
    10   Atom        0.028475      0.039535     -0.220222
    11   Atom        0.029053     -0.069346      0.180064
    12   Atom        0.127792     -0.002341      0.002983
 --------------------------------------------------------


 ---------------------------------------------------------------------------------
              Nuclear Quadrupole Coupling Constant in Principal Axis System
 ---------------------------------------------------------------------------------

       Atom             a.u.   MegaHertz   Gauss  10(-4) cm-1        Axes


 ---------------------------------------------------------------------------------

 No NMR shielding tensors so no spin-rotation constants.
 Leave Link  601 at Thu Apr 21 16:30:11 2022, MaxMem= 25769803776 cpu:               8.8 elap:               0.2
 Calling FoFJK, ICntrl=      2127 FMM=F ISym2X=0 I1Cent= 0 IOpClX= 0 NMat=1 NMatS=1 NMatT=0.
 ***** Axes restored to original set *****
 -------------------------------------------------------------------
 Center     Atomic                   Forces (Hartrees/Bohr)
 Number     Number              X              Y              Z
 -------------------------------------------------------------------
      1        1           0.006996387   -0.004767685   -0.004240344
      2        8          -0.014623531   -0.002403815   -0.001170626
      3        6          -0.003727466    0.010490000    0.003216187
      4        8           0.009525510   -0.006034326   -0.001834107
      5        6           0.012068046   -0.004675290   -0.002953933
      6        6          -0.007842673   -0.000136423    0.000990969
      7        1          -0.000700204    0.001790487    0.000816204
      8        1          -0.000094311    0.001405498    0.002380213
      9        6           0.004909547    0.004648888    0.002239507
     10        1          -0.001842760   -0.001631083    0.002922903
     11        1          -0.001548823    0.002970254   -0.000526152
     12        1          -0.003119721   -0.001656505   -0.001840819
 -------------------------------------------------------------------
 Cartesian Forces:  Max     0.014623531 RMS     0.005052182

 GradGradGradGradGradGradGradGradGradGradGradGradGradGradGradGradGradGrad
 Berny optimization.
 FormGI is forming the generalized inverse of G from B-inverse, IUseBI=4.
 Internal  Forces:  Max     0.011376313 RMS     0.003993485
 Search for a local minimum.
 Step number   1 out of a maximum of   53
 All quantities printed in internal units (Hartrees-Bohrs-Radians)
 Mixed Optimization -- RFO/linear search
 Second derivative matrix not updated -- first step.
 ITU=  0
     Eigenvalues ---    0.00793   0.00990   0.01440   0.01485   0.02432
     Eigenvalues ---    0.02839   0.02839   0.07213   0.07289   0.16000
     Eigenvalues ---    0.16000   0.16000   0.16000   0.16000   0.16000
     Eigenvalues ---    0.25000   0.25000   0.25000   0.25000   0.32596
     Eigenvalues ---    0.34165   0.34222   0.34231   0.34248   0.35269
     Eigenvalues ---    0.35410   0.51613   0.56302   0.56469   0.96267
 RFO step:  Lambda=-2.81818977D-03 EMin= 7.93395116D-03
 Linear search not attempted -- first point.
 Iteration  1 RMS(Cart)=  0.06237368 RMS(Int)=  0.00201475
 Iteration  2 RMS(Cart)=  0.00274239 RMS(Int)=  0.00018091
 Iteration  3 RMS(Cart)=  0.00000373 RMS(Int)=  0.00018089
 Iteration  4 RMS(Cart)=  0.00000000 RMS(Int)=  0.00018089
 Variable       Old X    -DE/DX   Delta X   Delta X   Delta X     New X
                                 (Linear)    (Quad)   (Total)
    R1        1.84972  -0.00817   0.00000  -0.01575  -0.01575   1.83397
    R2        2.53993   0.01138   0.00000   0.02011   0.02011   2.56004
    R3        2.30172  -0.01028   0.00000  -0.01065  -0.01065   2.29107
    R4        2.80257   0.00162   0.00000   0.00470   0.00470   2.80727
    R5        2.53850  -0.00876   0.00000  -0.01543  -0.01543   2.52306
    R6        2.83067   0.00354   0.00000   0.01077   0.01077   2.84143
    R7        2.05014  -0.00076   0.00000  -0.00212  -0.00212   2.04802
    R8        2.05241  -0.00236   0.00000  -0.00665  -0.00665   2.04575
    R9        2.06914  -0.00136   0.00000  -0.00395  -0.00395   2.06519
   R10        2.06943  -0.00104   0.00000  -0.00302  -0.00302   2.06641
   R11        2.07053  -0.00283   0.00000  -0.00821  -0.00821   2.06232
    A1        1.81125   0.00866   0.00000   0.05321   0.05321   1.86446
    A2        2.11344   0.00396   0.00000   0.01566   0.01566   2.12909
    A3        1.98213   0.00278   0.00000   0.01099   0.01099   1.99312
    A4        2.18762  -0.00674   0.00000  -0.02664  -0.02664   2.16098
    A5        2.12701  -0.00563   0.00000  -0.02228  -0.02256   2.10445
    A6        2.01812  -0.00070   0.00000  -0.00277  -0.00308   2.01504
    A7        2.13805   0.00633   0.00000   0.02505   0.02471   2.16277
    A8        2.11717  -0.00140   0.00000  -0.00859  -0.00863   2.10854
    A9        2.13098  -0.00073   0.00000  -0.00447  -0.00450   2.12648
   A10        2.03504   0.00213   0.00000   0.01306   0.01303   2.04806
   A11        1.93101   0.00125   0.00000   0.00552   0.00554   1.93655
   A12        1.93080   0.00134   0.00000   0.00527   0.00529   1.93609
   A13        1.95044  -0.00362   0.00000  -0.01709  -0.01705   1.93339
   A14        1.89624  -0.00312   0.00000  -0.02900  -0.02900   1.86724
   A15        1.87657   0.00224   0.00000   0.01939   0.01942   1.89600
   A16        1.87661   0.00192   0.00000   0.01594   0.01597   1.89258
    D1       -0.00009   0.00085   0.00000   0.03141   0.03141   0.03131
    D2        3.14139   0.00086   0.00000   0.03158   0.03158  -3.11021
    D3        0.34889  -0.00088   0.00000  -0.07810  -0.07851   0.27038
    D4       -2.79268  -0.00168   0.00000  -0.12355  -0.12314  -2.91582
    D5       -2.79281  -0.00088   0.00000  -0.07792  -0.07833  -2.87115
    D6        0.34880  -0.00168   0.00000  -0.12337  -0.12296   0.22584
    D7        3.14146  -0.00123   0.00000  -0.04987  -0.04986   3.09160
    D8       -0.00019  -0.00074   0.00000  -0.03414  -0.03413  -0.03432
    D9       -0.00016  -0.00037   0.00000  -0.00129  -0.00130  -0.00145
   D10        3.14138   0.00012   0.00000   0.01445   0.01443  -3.12738
   D11       -1.05116   0.00164   0.00000   0.04468   0.04493  -1.00623
   D12        1.05113  -0.00058   0.00000   0.01538   0.01566   1.06680
   D13        3.14153   0.00036   0.00000   0.02777   0.02804  -3.11362
   D14        2.09045   0.00083   0.00000  -0.00109  -0.00137   2.08908
   D15       -2.09044  -0.00139   0.00000  -0.03038  -0.03064  -2.12108
   D16       -0.00004  -0.00045   0.00000  -0.01800  -0.01826  -0.01831
         Item               Value     Threshold  Converged?
 Maximum Force            0.011376     0.000450     NO 
 RMS     Force            0.003993     0.000300     NO 
 Maximum Displacement     0.203243     0.001800     NO 
 RMS     Displacement     0.062404     0.001200     NO 
 Predicted change in Energy=-1.495189D-03
 GradGradGradGradGradGradGradGradGradGradGradGradGradGradGradGradGradGrad

                          Input orientation:                          
 ---------------------------------------------------------------------
 Center     Atomic      Atomic             Coordinates (Angstroms)
 Number     Number       Type             X           Y           Z
 ---------------------------------------------------------------------
      1          1           0        1.131309   -0.046176    0.284149
      2          8           0        2.087668   -0.189856    0.202965
      3          6           0        2.693036    0.780886    0.928525
      4          8           0        2.060153    1.603780    1.554765
      5          6           0        4.177287    0.739335    0.882614
      6          6           0        4.808106    0.020957   -0.049384
      7          1           0        5.889868    0.024508   -0.115155
      8          1           0        4.267746   -0.573679   -0.774897
      9          6           0        4.879494    1.594495    1.900694
     10          1           0        4.580483    2.641273    1.804936
     11          1           0        4.624420    1.281095    2.916789
     12          1           0        5.962228    1.528784    1.780797
 ---------------------------------------------------------------------
                    Distance matrix (angstroms):
                    1          2          3          4          5
     1  H    0.000000
     2  O    0.970493   0.000000
     3  C    1.881022   1.354714   0.000000
     4  O    2.280257   2.246164   1.212383   0.000000
     5  C    3.202057   2.385755   1.485542   2.383550   0.000000
     6  C    3.692504   2.740239   2.450983   3.553853   1.335148
     7  H    4.775806   3.821503   3.446899   4.466481   2.107001
     8  H    3.352174   2.419974   2.686299   3.878417   2.116490
     9  C    4.399308   3.722968   2.527384   2.840500   1.503622
    10  H    4.629469   4.098260   2.791343   2.736977   2.151887
    11  H    4.571025   3.995454   2.816673   2.921421   2.152046
    12  H    5.297002   4.522775   3.460251   3.909336   2.148483
                    6          7          8          9         10
     6  C    0.000000
     7  H    1.083766   0.000000
     8  H    1.082567   1.850505   0.000000
     9  C    2.506775   2.747610   3.497714   0.000000
    10  H    3.218132   3.499814   4.133916   1.092850   0.000000
    11  H    3.227983   3.517535   4.146800   1.093495   1.757337
    12  H    2.637253   2.421304   3.717956   1.091332   1.774101
                   11         12
    11  H    0.000000
    12  H    1.772444   0.000000
 Stoichiometry    C4H6O2
 Framework group  C1[X(C4H6O2)]
 Deg. of freedom    30
 Full point group                 C1      NOp   1
 Largest Abelian subgroup         C1      NOp   1
 Largest concise Abelian subgroup C1      NOp   1
                         Standard orientation:                         
 ---------------------------------------------------------------------
 Center     Atomic      Atomic             Coordinates (Angstroms)
 Number     Number       Type             X           Y           Z
 ---------------------------------------------------------------------
      1          1           0        2.497831    0.446499    0.105079
      2          8           0        1.604869    0.822000    0.164025
      3          6           0        0.736229   -0.202352   -0.013223
      4          8           0        1.112946   -1.343816   -0.171394
      5          6           0       -0.693260    0.201472    0.004719
      6          6           0       -1.038197    1.484677   -0.125753
      7          1           0       -2.080812    1.778559   -0.159452
      8          1           0       -0.297336    2.268831   -0.216196
      9          6           0       -1.681905   -0.925943    0.116057
     10          1           0       -1.555725   -1.638733   -0.702681
     11          1           0       -1.538546   -1.480643    1.047446
     12          1           0       -2.705136   -0.547106    0.093961
 ---------------------------------------------------------------------
 Rotational constants (GHZ):           5.3777608           3.4653393           2.1602412
 Standard basis: 6-311++G(d,p) (5D, 7F)
 There are   180 symmetry adapted cartesian basis functions of A   symmetry.
 There are   174 symmetry adapted basis functions of A   symmetry.
   174 basis functions,   270 primitive gaussians,   180 cartesian basis functions
    23 alpha electrons       23 beta electrons
       nuclear repulsion energy       228.6587384739 Hartrees.
 NAtoms=   12 NActive=   12 NUniq=   12 SFac= 1.00D+00 NAtFMM=   60 NAOKFM=F Big=F
 Integral buffers will be    131072 words long.
 Raffenetti 2 integral format.
 Two-electron integral symmetry is turned on.
 Nuclear repulsion after empirical dispersion term =      228.6435137293 Hartrees.
 One-electron integrals computed using PRISM.
 NBasis=   174 RedAO= T EigKep=  1.49D-05  NBF=   174
 NBsUse=   174 1.00D-06 EigRej= -1.00D+00 NBFU=   174
 Initial guess from the checkpoint file:  "MAA-1.chk"
 B after Tr=     0.000000   -0.000000   -0.000000
         Rot=    0.999728   -0.000753   -0.000098    0.023324 Ang=  -2.67 deg.
 ExpMin= 3.60D-02 ExpMax= 8.59D+03 ExpMxC= 1.30D+03 IAcc=3 IRadAn=         5 AccDes= 0.00D+00
 Harris functional with IExCor=  402 and IRadAn=       5 diagonalized for initial guess.
 HarFok:  IExCor=  402 AccDes= 0.00D+00 IRadAn=         5 IDoV= 1 UseB2=F ITyADJ=14
 ICtDFT=  3500011 ScaDFX=  1.000000  1.000000  1.000000  1.000000
 FoFCou: FMM=F IPFlag=           0 FMFlag=      100000 FMFlg1=           0
         NFxFlg=           0 DoJE=T BraDBF=F KetDBF=T FulRan=T
         wScrn=  0.000000 ICntrl=       500 IOpCl=  0 I1Cent=   200000004 NGrid=           0
         NMat0=    1 NMatS0=      1 NMatT0=    0 NMatD0=    1 NMtDS0=    0 NMtDT0=    0
 Petite list used in FoFCou.
 Keep R1 ints in memory in canonical form, NReq=164304793.
 Requested convergence on RMS density matrix=1.00D-08 within 128 cycles.
 Requested convergence on MAX density matrix=1.00D-06.
 Requested convergence on             energy=1.00D-06.
 No special actions if energy rises.
 SCF Done:  E(RB3LYP) =  -306.596975726     A.U. after   12 cycles
            NFock= 12  Conv=0.43D-08     -V/T= 2.0039
 Calling FoFJK, ICntrl=      2127 FMM=F ISym2X=0 I1Cent= 0 IOpClX= 0 NMat=1 NMatS=1 NMatT=0.
 ***** Axes restored to original set *****
 -------------------------------------------------------------------
 Center     Atomic                   Forces (Hartrees/Bohr)
 Number     Number              X              Y              Z
 -------------------------------------------------------------------
      1        1           0.002386431    0.000076772   -0.000011802
      2        8          -0.002467900   -0.000561352   -0.001339682
      3        6          -0.003392405    0.003641905    0.003654668
      4        8           0.001597400   -0.002848620   -0.001424559
      5        6           0.002146834    0.000861882   -0.000024685
      6        6           0.000408011   -0.001178219   -0.001324854
      7        1           0.000397117   -0.000144189    0.000353124
      8        1          -0.000206961    0.000242283    0.000716962
      9        6           0.000931975    0.000504454   -0.000315239
     10        1          -0.000766231   -0.000447285    0.000290343
     11        1          -0.000639538    0.000354367   -0.000137511
     12        1          -0.000394733   -0.000501997   -0.000436767
 -------------------------------------------------------------------
 Cartesian Forces:  Max     0.003654668 RMS     0.001467733

 GradGradGradGradGradGradGradGradGradGradGradGradGradGradGradGradGradGrad
 Berny optimization.
 Using GEDIIS/GDIIS optimizer.
 FormGI is forming the generalized inverse of G from B-inverse, IUseBI=4.
 Internal  Forces:  Max     0.003503280 RMS     0.000880027
 Search for a local minimum.
 Step number   2 out of a maximum of   53
 All quantities printed in internal units (Hartrees-Bohrs-Radians)
 Mixed Optimization -- En-DIIS/RFO-DIIS
 Update second derivatives using D2CorX and points    1    2
 DE= -1.60D-03 DEPred=-1.50D-03 R= 1.07D+00
 TightC=F SS=  1.41D+00  RLast= 2.47D-01 DXNew= 5.0454D-01 7.4191D-01
 Trust test= 1.07D+00 RLast= 2.47D-01 DXMaxT set to 5.05D-01
 ITU=  1  0
 Use linear search instead of GDIIS.
     Eigenvalues ---    0.00794   0.00858   0.01455   0.01547   0.02433
     Eigenvalues ---    0.02832   0.02889   0.07145   0.07245   0.15526
     Eigenvalues ---    0.16000   0.16000   0.16000   0.16000   0.16941
     Eigenvalues ---    0.24584   0.24986   0.24999   0.26103   0.32897
     Eigenvalues ---    0.33896   0.34218   0.34241   0.34445   0.35223
     Eigenvalues ---    0.35466   0.50332   0.55850   0.57773   0.94354
 RFO step:  Lambda=-3.32476439D-04 EMin= 7.93731367D-03
 Quartic linear search produced a step of  0.15097.
 Iteration  1 RMS(Cart)=  0.04552959 RMS(Int)=  0.00139629
 Iteration  2 RMS(Cart)=  0.00199832 RMS(Int)=  0.00003720
 Iteration  3 RMS(Cart)=  0.00000297 RMS(Int)=  0.00003715
 Iteration  4 RMS(Cart)=  0.00000000 RMS(Int)=  0.00003715
 Variable       Old X    -DE/DX   Delta X   Delta X   Delta X     New X
                                 (Linear)    (Quad)   (Total)
    R1        1.83397  -0.00234  -0.00238  -0.00435  -0.00673   1.82724
    R2        2.56004   0.00111   0.00304   0.00117   0.00421   2.56424
    R3        2.29107  -0.00350  -0.00161  -0.00360  -0.00521   2.28586
    R4        2.80727   0.00191   0.00071   0.00614   0.00685   2.81412
    R5        2.52306   0.00104  -0.00233   0.00295   0.00062   2.52368
    R6        2.84143  -0.00086   0.00163  -0.00362  -0.00200   2.83944
    R7        2.04802   0.00037  -0.00032   0.00133   0.00101   2.04903
    R8        2.04575  -0.00051  -0.00100  -0.00130  -0.00230   2.04345
    R9        2.06519  -0.00024  -0.00060  -0.00060  -0.00120   2.06399
   R10        2.06641  -0.00008  -0.00046  -0.00010  -0.00056   2.06585
   R11        2.06232  -0.00031  -0.00124  -0.00060  -0.00184   2.06048
    A1        1.86446  -0.00084   0.00803  -0.00898  -0.00094   1.86352
    A2        2.12909  -0.00009   0.00236  -0.00127   0.00101   2.13010
    A3        1.99312  -0.00046   0.00166  -0.00269  -0.00112   1.99200
    A4        2.16098   0.00054  -0.00402   0.00396  -0.00014   2.16084
    A5        2.10445   0.00029  -0.00341   0.00279  -0.00067   2.10378
    A6        2.01504  -0.00095  -0.00047  -0.00402  -0.00455   2.01049
    A7        2.16277   0.00066   0.00373   0.00187   0.00554   2.16830
    A8        2.10854   0.00010  -0.00130   0.00124  -0.00012   2.10842
    A9        2.12648  -0.00060  -0.00068  -0.00395  -0.00468   2.12180
   A10        2.04806   0.00051   0.00197   0.00299   0.00490   2.05296
   A11        1.93655  -0.00041   0.00084  -0.00406  -0.00323   1.93331
   A12        1.93609  -0.00015   0.00080  -0.00238  -0.00159   1.93450
   A13        1.93339  -0.00064  -0.00257  -0.00175  -0.00432   1.92907
   A14        1.86724  -0.00026  -0.00438  -0.00385  -0.00826   1.85898
   A15        1.89600   0.00086   0.00293   0.00699   0.00993   1.90593
   A16        1.89258   0.00066   0.00241   0.00540   0.00782   1.90040
    D1        0.03131  -0.00006   0.00474  -0.00946  -0.00473   0.02659
    D2       -3.11021   0.00024   0.00477   0.01341   0.01818  -3.09203
    D3        0.27038  -0.00098  -0.01185  -0.09248  -0.10438   0.16600
    D4       -2.91582  -0.00081  -0.01859  -0.07736  -0.09590  -3.01172
    D5       -2.87115  -0.00067  -0.01183  -0.06913  -0.08101  -2.95216
    D6        0.22584  -0.00051  -0.01856  -0.05402  -0.07253   0.15330
    D7        3.09160   0.00037  -0.00753   0.02206   0.01455   3.10615
    D8       -0.03432  -0.00014  -0.00515   0.00028  -0.00486  -0.03918
    D9       -0.00145   0.00023  -0.00020   0.00577   0.00556   0.00410
   D10       -3.12738  -0.00028   0.00218  -0.01602  -0.01385  -3.14123
   D11       -1.00623   0.00028   0.00678  -0.00355   0.00325  -1.00298
   D12        1.06680  -0.00041   0.00236  -0.01254  -0.01013   1.05667
   D13       -3.11362  -0.00010   0.00423  -0.00849  -0.00421  -3.11783
   D14        2.08908   0.00044  -0.00021   0.01215   0.01189   2.10097
   D15       -2.12108  -0.00025  -0.00463   0.00316  -0.00149  -2.12257
   D16       -0.01831   0.00006  -0.00276   0.00722   0.00442  -0.01388
         Item               Value     Threshold  Converged?
 Maximum Force            0.003503     0.000450     NO 
 RMS     Force            0.000880     0.000300     NO 
 Maximum Displacement     0.152272     0.001800     NO 
 RMS     Displacement     0.045521     0.001200     NO 
 Predicted change in Energy=-2.000183D-04
 GradGradGradGradGradGradGradGradGradGradGradGradGradGradGradGradGradGrad

                          Input orientation:                          
 ---------------------------------------------------------------------
 Center     Atomic      Atomic             Coordinates (Angstroms)
 Number     Number       Type             X           Y           Z
 ---------------------------------------------------------------------
      1          1           0        1.135313   -0.006903    0.237928
      2          8           0        2.087870   -0.146547    0.147966
      3          6           0        2.694575    0.762810    0.951870
      4          8           0        2.064430    1.536745    1.635344
      5          6           0        4.182102    0.735920    0.887370
      6          6           0        4.807985    0.008721   -0.041579
      7          1           0        5.889911    0.011685   -0.113209
      8          1           0        4.260615   -0.604242   -0.744415
      9          6           0        4.881695    1.607390    1.891768
     10          1           0        4.563633    2.647344    1.790431
     11          1           0        4.630995    1.303777    2.911598
     12          1           0        5.962678    1.548699    1.761729
 ---------------------------------------------------------------------
                    Distance matrix (angstroms):
                    1          2          3          4          5
     1  H    0.000000
     2  O    0.966932   0.000000
     3  C    1.879752   1.356939   0.000000
     4  O    2.280105   2.246401   1.209626   0.000000
     5  C    3.202575   2.389828   1.489168   2.384391   0.000000
     6  C    3.683326   2.731128   2.453995   3.560059   1.335475
     7  H    4.767583   3.814285   3.450906   4.474098   2.107673
     8  H    3.330064   2.393042   2.683038   3.882050   2.113036
     9  C    4.401876   3.731301   2.525910   2.829793   1.502566
    10  H    4.605288   4.078349   2.783529   2.739252   2.148168
    11  H    4.591970   4.025990   2.807651   2.875822   2.149759
    12  H    5.295783   4.526835   3.457454   3.900314   2.143727
                    6          7          8          9         10
     6  C    0.000000
     7  H    1.084299   0.000000
     8  H    1.081349   1.852672   0.000000
     9  C    2.509782   2.753671   3.496644   0.000000
    10  H    3.221537   3.511347   4.134015   1.092216   0.000000
    11  H    3.229513   3.521907   4.140550   1.093200   1.751207
    12  H    2.637569   2.425510   3.716576   1.090357   1.779092
                   11         12
    11  H    0.000000
    12  H    1.776390   0.000000
 Stoichiometry    C4H6O2
 Framework group  C1[X(C4H6O2)]
 Deg. of freedom    30
 Full point group                 C1      NOp   1
 Largest Abelian subgroup         C1      NOp   1
 Largest concise Abelian subgroup C1      NOp   1
                         Standard orientation:                         
 ---------------------------------------------------------------------
 Center     Atomic      Atomic             Coordinates (Angstroms)
 Number     Number       Type             X           Y           Z
 ---------------------------------------------------------------------
      1          1           0        2.497828    0.442718    0.042679
      2          8           0        1.610805    0.822836    0.103172
      3          6           0        0.735003   -0.208563    0.000849
      4          8           0        1.103904   -1.355147   -0.110743
      5          6           0       -0.695689    0.204590    0.007605
      6          6           0       -1.029938    1.494406   -0.082654
      7          1           0       -2.070578    1.797664   -0.111065
      8          1           0       -0.279705    2.271930   -0.126499
      9          6           0       -1.686729   -0.922984    0.071812
     10          1           0       -1.544009   -1.612129   -0.763440
     11          1           0       -1.550665   -1.508816    0.984704
     12          1           0       -2.706431   -0.537572    0.048515
 ---------------------------------------------------------------------
 Rotational constants (GHZ):           5.3741661           3.4863453           2.1524360
 Standard basis: 6-311++G(d,p) (5D, 7F)
 There are   180 symmetry adapted cartesian basis functions of A   symmetry.
 There are   174 symmetry adapted basis functions of A   symmetry.
   174 basis functions,   270 primitive gaussians,   180 cartesian basis functions
    23 alpha electrons       23 beta electrons
       nuclear repulsion energy       228.7276884188 Hartrees.
 NAtoms=   12 NActive=   12 NUniq=   12 SFac= 1.00D+00 NAtFMM=   60 NAOKFM=F Big=F
 Integral buffers will be    131072 words long.
 Raffenetti 2 integral format.
 Two-electron integral symmetry is turned on.
 Nuclear repulsion after empirical dispersion term =      228.7124526976 Hartrees.
 One-electron integrals computed using PRISM.
 NBasis=   174 RedAO= T EigKep=  1.39D-05  NBF=   174
 NBsUse=   174 1.00D-06 EigRej= -1.00D+00 NBFU=   174
 Initial guess from the checkpoint file:  "MAA-1.chk"
 B after Tr=     0.000000    0.000000   -0.000000
         Rot=    0.999997   -0.000754    0.000198    0.002169 Ang=  -0.26 deg.
 ExpMin= 3.60D-02 ExpMax= 8.59D+03 ExpMxC= 1.30D+03 IAcc=3 IRadAn=         5 AccDes= 0.00D+00
 Harris functional with IExCor=  402 and IRadAn=       5 diagonalized for initial guess.
 HarFok:  IExCor=  402 AccDes= 0.00D+00 IRadAn=         5 IDoV= 1 UseB2=F ITyADJ=14
 ICtDFT=  3500011 ScaDFX=  1.000000  1.000000  1.000000  1.000000
 FoFCou: FMM=F IPFlag=           0 FMFlag=      100000 FMFlg1=           0
         NFxFlg=           0 DoJE=T BraDBF=F KetDBF=T FulRan=T
         wScrn=  0.000000 ICntrl=       500 IOpCl=  0 I1Cent=   200000004 NGrid=           0
         NMat0=    1 NMatS0=      1 NMatT0=    0 NMatD0=    1 NMtDS0=    0 NMtDT0=    0
 Petite list used in FoFCou.
 Keep R1 ints in memory in canonical form, NReq=164304793.
 Requested convergence on RMS density matrix=1.00D-08 within 128 cycles.
 Requested convergence on MAX density matrix=1.00D-06.
 Requested convergence on             energy=1.00D-06.
 No special actions if energy rises.
 SCF Done:  E(RB3LYP) =  -306.597213851     A.U. after   11 cycles
            NFock= 11  Conv=0.61D-08     -V/T= 2.0038
 Calling FoFJK, ICntrl=      2127 FMM=F ISym2X=0 I1Cent= 0 IOpClX= 0 NMat=1 NMatS=1 NMatT=0.
 ***** Axes restored to original set *****
 -------------------------------------------------------------------
 Center     Atomic                   Forces (Hartrees/Bohr)
 Number     Number              X              Y              Z
 -------------------------------------------------------------------
      1        1          -0.000895864    0.000176176    0.000478688
      2        8           0.000826551   -0.000536518   -0.000224762
      3        6           0.000123709    0.002101076   -0.001175886
      4        8          -0.000443346   -0.001052005    0.000893053
      5        6          -0.000424405    0.000107415    0.000216172
      6        6           0.000872022   -0.001008691    0.000450687
      7        1          -0.000000321   -0.000007542    0.000043332
      8        1          -0.000142925    0.000172033   -0.000317493
      9        6          -0.000098795   -0.000252275   -0.000406788
     10        1           0.000042293    0.000260397   -0.000120432
     11        1          -0.000014512   -0.000147587    0.000035513
     12        1           0.000155593    0.000187522    0.000127916
 -------------------------------------------------------------------
 Cartesian Forces:  Max     0.002101076 RMS     0.000596093

 GradGradGradGradGradGradGradGradGradGradGradGradGradGradGradGradGradGrad
 Berny optimization.
 Using GEDIIS/GDIIS optimizer.
 FormGI is forming the generalized inverse of G from B-inverse, IUseBI=4.
 Internal  Forces:  Max     0.001158477 RMS     0.000413578
 Search for a local minimum.
 Step number   3 out of a maximum of   53
 All quantities printed in internal units (Hartrees-Bohrs-Radians)
 Mixed Optimization -- En-DIIS/RFO-DIIS
 Swapping is turned off.
 Update second derivatives using D2CorX and points    1    2    3
 DE= -2.38D-04 DEPred=-2.00D-04 R= 1.19D+00
 TightC=F SS=  1.41D+00  RLast= 1.83D-01 DXNew= 8.4853D-01 5.4937D-01
 Trust test= 1.19D+00 RLast= 1.83D-01 DXMaxT set to 5.49D-01
 ITU=  1  1  0
     Eigenvalues ---    0.00345   0.00794   0.01543   0.02148   0.02558
     Eigenvalues ---    0.02873   0.03218   0.07258   0.07382   0.15914
     Eigenvalues ---    0.16000   0.16000   0.16000   0.16297   0.17008
     Eigenvalues ---    0.24736   0.24991   0.25175   0.26937   0.32901
     Eigenvalues ---    0.33879   0.34219   0.34265   0.34371   0.35347
     Eigenvalues ---    0.35456   0.53116   0.55635   0.58165   0.95447
 En-DIIS/RFO-DIIS/Sim-DIIS IScMMF=       -3 using points:     3    2
 RFO step:  Lambda=-4.00801754D-04.
 DidBck=F Rises=F RFO-DIIS coefs:    2.46467   -1.46467
 Iteration  1 RMS(Cart)=  0.06421733 RMS(Int)=  0.00413553
 Iteration  2 RMS(Cart)=  0.00400417 RMS(Int)=  0.00035319
 Iteration  3 RMS(Cart)=  0.00001654 RMS(Int)=  0.00035298
 Iteration  4 RMS(Cart)=  0.00000000 RMS(Int)=  0.00035298
 Variable       Old X    -DE/DX   Delta X   Delta X   Delta X     New X
                                 (Linear)    (Quad)   (Total)
    R1        1.82724   0.00095  -0.00985   0.00399  -0.00586   1.82138
    R2        2.56424   0.00012   0.00616   0.00041   0.00657   2.57081
    R3        2.28586   0.00006  -0.00763   0.00156  -0.00607   2.27979
    R4        2.81412   0.00040   0.01004  -0.00155   0.00848   2.82260
    R5        2.52368   0.00068   0.00091  -0.00060   0.00031   2.52399
    R6        2.83944  -0.00018  -0.00292   0.00160  -0.00132   2.83812
    R7        2.04903  -0.00000   0.00148  -0.00078   0.00070   2.04973
    R8        2.04345   0.00018  -0.00337   0.00107  -0.00230   2.04116
    R9        2.06399   0.00025  -0.00176   0.00107  -0.00069   2.06330
   R10        2.06585   0.00008  -0.00082   0.00023  -0.00059   2.06526
   R11        2.06048   0.00013  -0.00270   0.00048  -0.00222   2.05826
    A1        1.86352  -0.00053  -0.00138   0.00251   0.00113   1.86465
    A2        2.13010  -0.00058   0.00148  -0.00080  -0.00065   2.12946
    A3        1.99200   0.00002  -0.00163   0.00271  -0.00025   1.99175
    A4        2.16084   0.00059  -0.00021   0.00069  -0.00084   2.16000
    A5        2.10378   0.00070  -0.00099   0.00141   0.00037   2.10415
    A6        2.01049  -0.00030  -0.00666   0.00062  -0.00610   2.00439
    A7        2.16830  -0.00040   0.00811  -0.00189   0.00616   2.17447
    A8        2.10842  -0.00001  -0.00017  -0.00098  -0.00123   2.10719
    A9        2.12180  -0.00004  -0.00686   0.00168  -0.00526   2.11654
   A10        2.05296   0.00005   0.00717  -0.00062   0.00647   2.05943
   A11        1.93331  -0.00003  -0.00474   0.00205  -0.00272   1.93060
   A12        1.93450  -0.00019  -0.00232   0.00004  -0.00232   1.93218
   A13        1.92907   0.00035  -0.00633   0.00295  -0.00338   1.92569
   A14        1.85898   0.00013  -0.01209   0.00203  -0.01013   1.84885
   A15        1.90593  -0.00019   0.01454  -0.00456   0.00999   1.91591
   A16        1.90040  -0.00008   0.01145  -0.00273   0.00872   1.90911
    D1        0.02659   0.00043  -0.00692   0.04910   0.04215   0.06873
    D2       -3.09203  -0.00090   0.02663  -0.07277  -0.04611  -3.13814
    D3        0.16600   0.00018  -0.15288   0.04318  -0.10967   0.05633
    D4       -3.01172   0.00033  -0.14047   0.04738  -0.09316  -3.10488
    D5       -2.95216  -0.00116  -0.11865  -0.08112  -0.19969   3.13134
    D6        0.15330  -0.00101  -0.10624  -0.07691  -0.18318  -0.02988
    D7        3.10615   0.00011   0.02131  -0.00453   0.01682   3.12297
    D8       -0.03918   0.00038  -0.00712   0.01903   0.01195  -0.02723
    D9        0.00410  -0.00006   0.00814  -0.00920  -0.00110   0.00300
   D10       -3.14123   0.00021  -0.02029   0.01436  -0.00597   3.13599
   D11       -1.00298  -0.00011   0.00477  -0.00455   0.00018  -1.00279
   D12        1.05667  -0.00009  -0.01483  -0.00070  -0.01551   1.04116
   D13       -3.11783  -0.00008  -0.00617  -0.00215  -0.00833  -3.12616
   D14        2.10097   0.00007   0.01741  -0.00009   0.01730   2.11827
   D15       -2.12257   0.00009  -0.00218   0.00376   0.00161  -2.12095
   D16       -0.01388   0.00010   0.00648   0.00231   0.00879  -0.00509
         Item               Value     Threshold  Converged?
 Maximum Force            0.001158     0.000450     NO 
 RMS     Force            0.000414     0.000300     NO 
 Maximum Displacement     0.230655     0.001800     NO 
 RMS     Displacement     0.064150     0.001200     NO 
 Predicted change in Energy=-2.191468D-04
 GradGradGradGradGradGradGradGradGradGradGradGradGradGradGradGradGradGrad

                          Input orientation:                          
 ---------------------------------------------------------------------
 Center     Atomic      Atomic             Coordinates (Angstroms)
 Number     Number       Type             X           Y           Z
 ---------------------------------------------------------------------
      1          1           0        1.134364    0.028137    0.207413
      2          8           0        2.083609   -0.074344    0.075494
      3          6           0        2.696296    0.766380    0.952152
      4          8           0        2.074411    1.414688    1.757377
      5          6           0        4.188057    0.740601    0.881451
      6          6           0        4.811806   -0.010339   -0.030117
      7          1           0        5.894493   -0.017930   -0.095198
      8          1           0        4.258147   -0.632669   -0.717761
      9          6           0        4.882296    1.625986    1.876304
     10          1           0        4.556973    2.661930    1.761719
     11          1           0        4.619038    1.340125    2.897764
     12          1           0        5.962310    1.562835    1.750203
 ---------------------------------------------------------------------
                    Distance matrix (angstroms):
                    1          2          3          4          5
     1  H    0.000000
     2  O    0.963831   0.000000
     3  C    1.881295   1.360416   0.000000
     4  O    2.282236   2.246337   1.206413   0.000000
     5  C    3.207331   2.396331   1.493657   2.385191   0.000000
     6  C    3.685306   2.730991   2.458359   3.566394   1.335639
     7  H    4.769960   3.815123   3.455510   4.480787   2.107401
     8  H    3.324249   2.381092   2.680546   3.884157   2.109090
     9  C    4.402876   3.737204   2.524198   2.818334   1.501868
    10  H    4.589878   4.055623   2.776801   2.778263   2.145338
    11  H    4.593719   4.048992   2.794911   2.789474   2.147252
    12  H    5.295711   4.530930   3.455151   3.890726   2.139807
                    6          7          8          9         10
     6  C    0.000000
     7  H    1.084668   0.000000
     8  H    1.080133   1.855564   0.000000
     9  C    2.513359   2.759316   3.495749   0.000000
    10  H    3.227482   3.524025   4.134187   1.091854   0.000000
    11  H    3.230078   3.525468   4.134511   1.092887   1.744023
    12  H    2.639711   2.430827   3.716888   1.089183   1.784128
                   11         12
    11  H    0.000000
    12  H    1.780695   0.000000
 Stoichiometry    C4H6O2
 Framework group  C1[X(C4H6O2)]
 Deg. of freedom    30
 Full point group                 C1      NOp   1
 Largest Abelian subgroup         C1      NOp   1
 Largest concise Abelian subgroup C1      NOp   1
                         Standard orientation:                         
 ---------------------------------------------------------------------
 Center     Atomic      Atomic             Coordinates (Angstroms)
 Number     Number       Type             X           Y           Z
 ---------------------------------------------------------------------
      1          1           0        2.499515    0.440215   -0.004935
      2          8           0        1.616002    0.824738    0.017789
      3          6           0        0.734489   -0.210687   -0.021738
      4          8           0        1.097911   -1.360926   -0.004243
      5          6           0       -0.699334    0.207198    0.001399
      6          6           0       -1.029733    1.501290   -0.008259
      7          1           0       -2.070210    1.807739   -0.008879
      8          1           0       -0.273901    2.272914   -0.007723
      9          6           0       -1.686430   -0.924704    0.008345
     10          1           0       -1.537146   -1.570297   -0.859450
     11          1           0       -1.538602   -1.560956    0.884548
     12          1           0       -2.704915   -0.538691    0.009583
 ---------------------------------------------------------------------
 Rotational constants (GHZ):           5.3675551           3.4990079           2.1460044
 Standard basis: 6-311++G(d,p) (5D, 7F)
 There are   180 symmetry adapted cartesian basis functions of A   symmetry.
 There are   174 symmetry adapted basis functions of A   symmetry.
   174 basis functions,   270 primitive gaussians,   180 cartesian basis functions
    23 alpha electrons       23 beta electrons
       nuclear repulsion energy       228.7233536693 Hartrees.
 NAtoms=   12 NActive=   12 NUniq=   12 SFac= 1.00D+00 NAtFMM=   60 NAOKFM=F Big=F
 Integral buffers will be    131072 words long.
 Raffenetti 2 integral format.
 Two-electron integral symmetry is turned on.
 Nuclear repulsion after empirical dispersion term =      228.7081124327 Hartrees.
 One-electron integrals computed using PRISM.
 NBasis=   174 RedAO= T EigKep=  1.30D-05  NBF=   174
 NBsUse=   174 1.00D-06 EigRej= -1.00D+00 NBFU=   174
 Initial guess from the checkpoint file:  "MAA-1.chk"
 B after Tr=    -0.000000   -0.000000    0.000000
         Rot=    0.999999   -0.001500   -0.000126    0.000589 Ang=  -0.19 deg.
 ExpMin= 3.60D-02 ExpMax= 8.59D+03 ExpMxC= 1.30D+03 IAcc=3 IRadAn=         5 AccDes= 0.00D+00
[...]
 8576 Fit       0.005657
 8577 Fit       0.008857
 8578 Fit       0.013432
 8579 Fit       0.019792
 8580 Fit       0.028189
 8581 Fit       0.038258
 8582 Fit       0.038192
 8583 Fit       0.028133
 8584 Fit       0.019752
 8585 Fit       0.013406
 8586 Fit       0.008841
 8587 Fit       0.005649
 8588 Fit       0.007136
 8589 Fit       0.010902
 8590 Fit       0.016371
 8591 Fit       0.024161
 8592 Fit       0.034820
 8593 Fit       0.034747
 8594 Fit       0.024111
 8595 Fit       0.016339
 8596 Fit       0.010884
 8597 Fit       0.007127
 8598 Fit       0.005192
 8599 Fit       0.007900
 8600 Fit       0.011879
 8601 Fit       0.017703
 8602 Fit       0.026113
 8603 Fit       0.037853
 8604 Fit       0.037772
 8605 Fit       0.026059
 8606 Fit       0.017670
 8607 Fit       0.011861
 8608 Fit       0.007892
 8609 Fit       0.005189
 8610 Fit       0.007937
 8611 Fit       0.011748
 8612 Fit       0.017312
 8613 Fit       0.025329
 8614 Fit       0.036485
 8615 Fit       0.036411
 8616 Fit       0.025280
 8617 Fit       0.017283
 8618 Fit       0.011733
 8619 Fit       0.007931
 8620 Fit       0.007370
 8621 Fit       0.010703
 8622 Fit       0.015504
 8623 Fit       0.022302
 8624 Fit       0.031526
 8625 Fit       0.042972
 8626 Fit       0.042900
 8627 Fit       0.031470
 8628 Fit       0.022264
 8629 Fit       0.015483
 8630 Fit       0.010693
 8631 Fit       0.007367
 8632 Fit       0.006407
 8633 Fit       0.009092
 8634 Fit       0.012870
 8635 Fit       0.018068
 8636 Fit       0.024859
 8637 Fit       0.032879
 8638 Fit       0.040698
 8639 Fit       0.040658
 8640 Fit       0.032834
 8641 Fit       0.024822
 8642 Fit       0.018044
 8643 Fit       0.012858
 8644 Fit       0.009087
 8645 Fit       0.006408
 8646 Fit       0.005278
 8647 Fit       0.007285
 8648 Fit       0.010030
 8649 Fit       0.013677
 8650 Fit       0.018243
 8651 Fit       0.023372
 8652 Fit       0.028119
 8653 Fit       0.031064
 8654 Fit       0.031055
 8655 Fit       0.028098
 8656 Fit       0.023348
 8657 Fit       0.018223
 8658 Fit       0.013665
 8659 Fit       0.010026
 8660 Fit       0.007286
 8661 Fit       0.005282
 8662 Fit       0.005579
 8663 Fit       0.007441
 8664 Fit       0.009824
 8665 Fit       0.012687
 8666 Fit       0.015763
 8667 Fit       0.018491
 8668 Fit       0.020130
 8669 Fit       0.020126
 8670 Fit       0.018481
 8671 Fit       0.015753
 8672 Fit       0.012680
 8673 Fit       0.009822
 8674 Fit       0.007442
 8675 Fit       0.005584
 8676 Fit       0.005336
 8677 Fit       0.006806
 8678 Fit       0.008504
 8679 Fit       0.010259
 8680 Fit       0.011763
 8681 Fit       0.012645
 8682 Fit       0.012644
 8683 Fit       0.011760
 8684 Fit       0.010257
 8685 Fit       0.008504
 8686 Fit       0.006809
 8687 Fit       0.005341
 8688 Fit       0.004632
 8689 Fit       0.005595
 8690 Fit       0.006557
 8691 Fit       0.007358
 8692 Fit       0.007820
 8693 Fit       0.007820
 8694 Fit       0.007359
 8695 Fit       0.006559
 8696 Fit       0.005599
 8697 Fit       0.004638
 8698 Fit       0.003697
 8699 Fit       0.004208
 8700 Fit       0.004623
 8701 Fit       0.004858
 8702 Fit       0.004859
 8703 Fit       0.004625
 8704 Fit       0.004211
 8705 Fit       0.003702
 8706 Fit      -0.005311
 8707 Fit      -0.005441
 8708 Fit      -0.005508
 8709 Fit      -0.005508
 8710 Fit      -0.005439
 8711 Fit      -0.005309
 8712 Fit      -0.001543
 8713 Fit      -0.001112
 8714 Fit      -0.000670
 8715 Fit      -0.000298
 8716 Fit      -0.000084
 8717 Fit      -0.000084
 8718 Fit      -0.000299
 8719 Fit      -0.000671
 8720 Fit      -0.001113
 8721 Fit      -0.001543
 8722 Fit       0.001398
 8723 Fit       0.002619
 8724 Fit       0.004007
 8725 Fit       0.005406
 8726 Fit       0.006576
 8727 Fit       0.007250
 8728 Fit       0.007249
 8729 Fit       0.006571
 8730 Fit       0.005399
 8731 Fit       0.004000
 8732 Fit       0.002614
 8733 Fit       0.001395
 8734 Fit       0.003197
 8735 Fit       0.005046
 8736 Fit       0.007348
 8737 Fit       0.010003
 8738 Fit       0.012733
 8739 Fit       0.015061
 8740 Fit       0.016423
 8741 Fit       0.016419
 8742 Fit       0.015050
 8743 Fit       0.012718
 8744 Fit       0.009989
 8745 Fit       0.007336
 8746 Fit       0.005038
 8747 Fit       0.003191
 8748 Fit       0.005929
 8749 Fit       0.008705
 8750 Fit       0.012224
 8751 Fit       0.016384
 8752 Fit       0.020785
 8753 Fit       0.024645
 8754 Fit       0.026950
 8755 Fit       0.026942
 8756 Fit       0.024625
 8757 Fit       0.020760
 8758 Fit       0.016359
 8759 Fit       0.012204
 8760 Fit       0.008690
 8761 Fit       0.005919
 8762 Fit       0.005608
 8763 Fit       0.008311
 8764 Fit       0.011947
 8765 Fit       0.016649
 8766 Fit       0.022357
 8767 Fit       0.028586
 8768 Fit       0.034221
 8769 Fit       0.037667
 8770 Fit       0.037655
 8771 Fit       0.034191
 8772 Fit       0.028549
 8773 Fit       0.022322
 8774 Fit       0.016621
 8775 Fit       0.011927
 8776 Fit       0.008299
 8777 Fit       0.005601
 8778 Fit       0.006923
 8779 Fit       0.010062
 8780 Fit       0.014331
 8781 Fit       0.019946
 8782 Fit       0.026912
 8783 Fit       0.034718
 8784 Fit       0.041974
 8785 Fit       0.046509
 8786 Fit       0.046493
 8787 Fit       0.041934
 8788 Fit       0.034670
 8789 Fit       0.026869
 8790 Fit       0.019912
 8791 Fit       0.014308
 8792 Fit       0.010047
 8793 Fit       0.006915
 8794 Fit       0.007663
 8795 Fit       0.010987
 8796 Fit       0.015530
 8797 Fit       0.021553
 8798 Fit       0.029112
 8799 Fit       0.037699
 8800 Fit       0.045801
 8801 Fit       0.050923
 8802 Fit       0.050905
 8803 Fit       0.045756
 8804 Fit       0.037646
 8805 Fit       0.029064
 8806 Fit       0.021517
 8807 Fit       0.015505
 8808 Fit       0.010972
 8809 Fit       0.007655
 8810 Fit       0.007807
 8811 Fit       0.011040
 8812 Fit       0.015444
 8813 Fit       0.021266
 8814 Fit       0.028550
 8815 Fit       0.036795
 8816 Fit       0.044542
 8817 Fit       0.049424
 8818 Fit       0.049408
 8819 Fit       0.044501
 8820 Fit       0.036746
 8821 Fit       0.028506
 8822 Fit       0.021233
 8823 Fit       0.015422
 8824 Fit       0.011027
 8825 Fit       0.007800
 8826 Fit       0.007432
 8827 Fit       0.010340
 8828 Fit       0.014254
 8829 Fit       0.019356
 8830 Fit       0.025633
 8831 Fit       0.032595
 8832 Fit       0.039001
 8833 Fit       0.042970
 8834 Fit       0.042957
 8835 Fit       0.038968
 8836 Fit       0.032556
 8837 Fit       0.025597
 8838 Fit       0.019330
 8839 Fit       0.014236
 8840 Fit       0.010330
 8841 Fit       0.007428
 8842 Fit       0.006687
 8843 Fit       0.009123
 8844 Fit       0.012339
 8845 Fit       0.016437
 8846 Fit       0.021346
 8847 Fit       0.026629
 8848 Fit       0.031343
 8849 Fit       0.034196
 8850 Fit       0.034187
 8851 Fit       0.031321
 8852 Fit       0.026602
 8853 Fit       0.021322
 8854 Fit       0.016419
 8855 Fit       0.012327
 8856 Fit       0.009117
 8857 Fit       0.006686
 8858 Fit       0.007663
 8859 Fit       0.010131
 8860 Fit       0.013190
 8861 Fit       0.016739
 8862 Fit       0.020433
 8863 Fit       0.023625
 8864 Fit       0.025511
 8865 Fit       0.025506
 8866 Fit       0.023612
 8867 Fit       0.020417
 8868 Fit       0.016725
 8869 Fit       0.013179
 8870 Fit       0.010125
 8871 Fit       0.007661
 8872 Fit       0.007985
 8873 Fit       0.010135
 8874 Fit       0.012550
 8875 Fit       0.014981
 8876 Fit       0.017021
 8877 Fit       0.018201
 8878 Fit       0.018198
 8879 Fit       0.017014
 8880 Fit       0.014973
 8881 Fit       0.012543
 8882 Fit       0.010131
 8883 Fit       0.007984
 8884 Fit       0.006119
 8885 Fit       0.007561
 8886 Fit       0.009129
 8887 Fit       0.010659
 8888 Fit       0.011910
 8889 Fit       0.012622
 8890 Fit       0.012621
 8891 Fit       0.011908
 8892 Fit       0.010657
 8893 Fit       0.009127
 8894 Fit       0.007561
 8895 Fit       0.006121
 8896 Fit       0.006540
 8897 Fit       0.007473
 8898 Fit       0.008218
 8899 Fit       0.008636
 8900 Fit       0.008635
 8901 Fit       0.008218
 8902 Fit       0.007473
 8903 Fit       0.006541
 8904 Fit       0.005681
 8905 Fit       0.005922
 8906 Fit       0.005922
 8907 Fit       0.005682
 8908 Fit       0.000261
 8909 Fit       0.000768
 8910 Fit       0.001175
 8911 Fit       0.001404
 8912 Fit       0.001403
 8913 Fit       0.001174
 8914 Fit       0.000766
 8915 Fit       0.000260
 8916 Fit       0.003060
 8917 Fit       0.004247
 8918 Fit       0.005392
 8919 Fit       0.006315
 8920 Fit       0.006834
 8921 Fit       0.006833
 8922 Fit       0.006311
 8923 Fit       0.005386
 8924 Fit       0.004241
 8925 Fit       0.003055
 8926 Fit       0.004879
 8927 Fit       0.006718
 8928 Fit       0.008732
 8929 Fit       0.010701
 8930 Fit       0.012311
 8931 Fit       0.013227
 8932 Fit       0.013224
 8933 Fit       0.012304
 8934 Fit       0.010691
 8935 Fit       0.008721
 8936 Fit       0.006709
 8937 Fit       0.004872
 8938 Fit       0.005553
 8939 Fit       0.007758
 8940 Fit       0.010400
 8941 Fit       0.013341
 8942 Fit       0.016273
 8943 Fit       0.018713
 8944 Fit       0.020116
 8945 Fit       0.020112
 8946 Fit       0.018701
 8947 Fit       0.016258
 8948 Fit       0.013325
 8949 Fit       0.010385
 8950 Fit       0.007747
 8951 Fit       0.005546
 8952 Fit       0.007500
 8953 Fit       0.010295
 8954 Fit       0.013692
 8955 Fit       0.017541
 8956 Fit       0.021450
 8957 Fit       0.024761
 8958 Fit       0.026690
 8959 Fit       0.026684
 8960 Fit       0.024744
 8961 Fit       0.021429
 8962 Fit       0.017519
 8963 Fit       0.013673
 8964 Fit       0.010281
 8965 Fit       0.007490
 8966 Fit       0.008959
 8967 Fit       0.012190
 8968 Fit       0.016158
 8969 Fit       0.020715
 8970 Fit       0.025415
 8971 Fit       0.029453
 8972 Fit       0.031831
 8973 Fit       0.031824
 8974 Fit       0.029432
 8975 Fit       0.025389
 8976 Fit       0.020689
 8977 Fit       0.016136
 8978 Fit       0.012173
 8979 Fit       0.008948
 8980 Fit       0.009789
 8981 Fit       0.013219
 8982 Fit       0.017451
 8983 Fit       0.022342
 8984 Fit       0.027424
 8985 Fit       0.031822
 8986 Fit       0.034427
 8987 Fit       0.034419
 8988 Fit       0.031800
 8989 Fit       0.027396
 8990 Fit       0.022314
 8991 Fit       0.017428
 8992 Fit       0.013202
 8993 Fit       0.009778
 8994 Fit       0.009950
 8995 Fit       0.013310
 8996 Fit       0.017443
 8997 Fit       0.022208
 8998 Fit       0.027146
 8999 Fit       0.031408
 9000 Fit       0.033928
 9001 Fit       0.033920
 9002 Fit       0.031387
 9003 Fit       0.027119
 9004 Fit       0.022182
 9005 Fit       0.017422
 9006 Fit       0.013294
 9007 Fit       0.009939
 9008 Fit       0.009511
 9009 Fit       0.012565
 9010 Fit       0.016283
 9011 Fit       0.020519
 9012 Fit       0.024854
 9013 Fit       0.028553
 9014 Fit       0.030722
 9015 Fit       0.030715
 9016 Fit       0.028536
 9017 Fit       0.024832
 9018 Fit       0.020497
 9019 Fit       0.016265
 9020 Fit       0.012552
 9021 Fit       0.009503
 9022 Fit       0.008630
 9023 Fit       0.011225
 9024 Fit       0.014330
 9025 Fit       0.017801
 9026 Fit       0.021286
 9027 Fit       0.024208
 9028 Fit       0.025899
 9029 Fit       0.025895
 9030 Fit       0.024195
 9031 Fit       0.021270
 9032 Fit       0.017785
 9033 Fit       0.014317
 9034 Fit       0.011216
 9035 Fit       0.008625
 9036 Fit       0.009579
 9037 Fit       0.012012
 9038 Fit       0.014670
 9039 Fit       0.017278
 9040 Fit       0.019421
 9041 Fit       0.020644
 9042 Fit       0.020641
 9043 Fit       0.019413
 9044 Fit       0.017268
 9045 Fit       0.014660
 9046 Fit       0.012004
 9047 Fit       0.009574
 9048 Fit       0.007887
 9049 Fit       0.009696
 9050 Fit       0.011624
 9051 Fit       0.013470
 9052 Fit       0.014957
 9053 Fit       0.015794
 9054 Fit       0.015792
 9055 Fit       0.014953
 9056 Fit       0.013465
 9057 Fit       0.011618
 9058 Fit       0.009692
 9059 Fit       0.007885
 9060 Fit       0.007621
 9061 Fit       0.008962
 9062 Fit       0.010217
 9063 Fit       0.011208
 9064 Fit       0.011758
 9065 Fit       0.011757
 9066 Fit       0.011206
 9067 Fit       0.010214
 9068 Fit       0.008960
 9069 Fit       0.007621
 9070 Fit       0.007633
 9071 Fit       0.008275
 9072 Fit       0.008628
 9073 Fit       0.008627
 9074 Fit       0.008275
 9075 Fit       0.007633
 9076 Fit       0.002003
 9077 Fit       0.002002
 9078 Fit       0.004045
 9079 Fit       0.004938
 9080 Fit       0.005638
 9081 Fit       0.006024
 9082 Fit       0.006023
 9083 Fit       0.005635
 9084 Fit       0.004934
 9085 Fit       0.004041
 9086 Fit       0.005904
 9087 Fit       0.007399
 9088 Fit       0.008804
 9089 Fit       0.009915
 9090 Fit       0.010533
 9091 Fit       0.010531
 9092 Fit       0.009911
 9093 Fit       0.008798
 9094 Fit       0.007392
 9095 Fit       0.005897
 9096 Fit       0.008680
 9097 Fit       0.010751
 9098 Fit       0.012719
 9099 Fit       0.014293
 9100 Fit       0.015175
 9101 Fit       0.015172
 9102 Fit       0.014286
 9103 Fit       0.012710
 9104 Fit       0.010740
 9105 Fit       0.008671
 9106 Fit       0.008703
 9107 Fit       0.011137
 9108 Fit       0.013746
 9109 Fit       0.016257
 9110 Fit       0.018285
 9111 Fit       0.019429
 9112 Fit       0.019426
 9113 Fit       0.018276
 9114 Fit       0.016244
 9115 Fit       0.013732
 9116 Fit       0.011124
 9117 Fit       0.008693
 9118 Fit       0.010198
 9119 Fit       0.012991
 9120 Fit       0.016010
 9121 Fit       0.018941
 9122 Fit       0.021328
 9123 Fit       0.022683
 9124 Fit       0.022678
 9125 Fit       0.021317
 9126 Fit       0.018926
 9127 Fit       0.015994
 9128 Fit       0.012976
 9129 Fit       0.010187
 9130 Fit       0.011064
 9131 Fit       0.014028
 9132 Fit       0.017243
 9133 Fit       0.020378
 9134 Fit       0.022940
 9135 Fit       0.024397
 9136 Fit       0.024393
 9137 Fit       0.022928
 9138 Fit       0.020361
 9139 Fit       0.017226
 9140 Fit       0.014013
 9141 Fit       0.011052
 9142 Fit       0.011249
 9143 Fit       0.014168
 9144 Fit       0.017326
 9145 Fit       0.020399
 9146 Fit       0.022907
 9147 Fit       0.024332
 9148 Fit       0.024328
 9149 Fit       0.022896
 9150 Fit       0.020384
 9151 Fit       0.017311
 9152 Fit       0.014154
 9153 Fit       0.011238
 9154 Fit       0.010812
 9155 Fit       0.013491
 9156 Fit       0.016367
 9157 Fit       0.019142
 9158 Fit       0.021390
 9159 Fit       0.022662
 9160 Fit       0.022659
 9161 Fit       0.021381
 9162 Fit       0.019129
 9163 Fit       0.016353
 9164 Fit       0.013479
 9165 Fit       0.010802
 9166 Fit       0.009901
 9167 Fit       0.012209
 9168 Fit       0.014653
 9169 Fit       0.016982
 9170 Fit       0.018848
 9171 Fit       0.019896
 9172 Fit       0.019893
 9173 Fit       0.018841
 9174 Fit       0.016972
 9175 Fit       0.014643
 9176 Fit       0.012200
 9177 Fit       0.009894
 9178 Fit       0.010590
 9179 Fit       0.012548
 9180 Fit       0.014384
 9181 Fit       0.015837
 9182 Fit       0.016645
 9183 Fit       0.016643
 9184 Fit       0.015832
 9185 Fit       0.014377
 9186 Fit       0.012541
 9187 Fit       0.010584
 9188 Fit       0.010376
 9189 Fit       0.011754
 9190 Fit       0.012828
 9191 Fit       0.013420
 9192 Fit       0.013419
 9193 Fit       0.012825
 9194 Fit       0.011750
 9195 Fit       0.010372
 9196 Fit       0.009361
 9197 Fit       0.010126
 9198 Fit       0.010543
 9199 Fit       0.010543
 9200 Fit       0.010124
 9201 Fit       0.009360
 9202 Fit       0.007171
 9203 Fit       0.007943
 9204 Fit       0.008365
 9205 Fit       0.008364
 9206 Fit       0.007940
 9207 Fit       0.007166
 9208 Fit       0.008634
 9209 Fit       0.009976
 9210 Fit       0.011016
 9211 Fit       0.011587
 9212 Fit       0.011585
 9213 Fit       0.011011
 9214 Fit       0.009969
 9215 Fit       0.008628
 9216 Fit       0.009021
 9217 Fit       0.010812
 9218 Fit       0.012466
 9219 Fit       0.013756
 9220 Fit       0.014468
 9221 Fit       0.014466
 9222 Fit       0.013751
 9223 Fit       0.012458
 9224 Fit       0.010803
 9225 Fit       0.009013
 9226 Fit       0.010432
 9227 Fit       0.012468
 9228 Fit       0.014358
 9229 Fit       0.015840
 9230 Fit       0.016660
 9231 Fit       0.016657
 9232 Fit       0.015834
 9233 Fit       0.014349
 9234 Fit       0.012458
 9235 Fit       0.010423
 9236 Fit       0.011269
 9237 Fit       0.013425
 9238 Fit       0.015431
 9239 Fit       0.017007
 9240 Fit       0.017880
 9241 Fit       0.017878
 9242 Fit       0.017001
 9243 Fit       0.015422
 9244 Fit       0.013415
 9245 Fit       0.011260
 9246 Fit       0.011480
 9247 Fit       0.013613
 9248 Fit       0.015593
 9249 Fit       0.017147
 9250 Fit       0.018007
 9251 Fit       0.018005
 9252 Fit       0.017141
 9253 Fit       0.015584
 9254 Fit       0.013603
 9255 Fit       0.011471
 9256 Fit       0.011109
 9257 Fit       0.013087
 9258 Fit       0.014914
 9259 Fit       0.016340
 9260 Fit       0.017127
 9261 Fit       0.017125
 9262 Fit       0.016335
 9263 Fit       0.014906
 9264 Fit       0.013078
 9265 Fit       0.011101
 9266 Fit       0.012012
 9267 Fit       0.013595
 9268 Fit       0.014823
 9269 Fit       0.015497
 9270 Fit       0.015495
 9271 Fit       0.014818
 9272 Fit       0.013589
 9273 Fit       0.012005
 9274 Fit       0.011903
 9275 Fit       0.012903
 9276 Fit       0.013448
 9277 Fit       0.013447
 9278 Fit       0.012900
 9279 Fit       0.011899
 9280 Fit       0.010869
 9281 Fit       0.011291
 9282 Fit       0.011290
 9283 Fit       0.010867
 9284 Fit       0.010520
 9285 Fit       0.010981
 9286 Fit       0.010980
 9287 Fit       0.010517
 9288 Fit       0.011053
 9289 Fit       0.012011
 9290 Fit       0.012531
 9291 Fit       0.012530
 9292 Fit       0.012007
 9293 Fit       0.011047
 9294 Fit       0.011882
 9295 Fit       0.012894
 9296 Fit       0.013444
 9297 Fit       0.013443
 9298 Fit       0.012890
 9299 Fit       0.011876
 9300 Fit       0.012103
 9301 Fit       0.013108
 9302 Fit       0.013653
 9303 Fit       0.013652
 9304 Fit       0.013104
 9305 Fit       0.012098
 9306 Fit       0.011754
 9307 Fit       0.012693
 9308 Fit       0.013201
 9309 Fit       0.013200
 9310 Fit       0.012689
 9311 Fit       0.012227
 9312 Fit       0.012226
 -----------------------------------------------------------------
 Leave Link  602 at Thu Apr 21 16:32:01 2022, MaxMem=   104857600 cpu:               0.5 elap:               0.5
 (Enter /opt/ohpc/pub/libs/gaussian/g16-A.03/haswell/g16/l9999.exe)

 Test job not archived.
 1\1\GINC-CASCADEB017\SP\RB3LYP\6-311++G(d,p)\C4H6O2\MNG228\21-Apr-2022
 \0\\#P B3LYP/6-311++G(d,p) Geom=Allcheck SCF=Tight EmpiricalDispersion
 =GD3BJ Pop=CHELPG SP IOp(6/33=2)\\MAA geo opt\\0,1\H,0,1.1310577283,0.
 0312827803,0.2108321134\O,0,2.0830017328,-0.0571340605,0.0595721027\C,
 0,2.6946774283,0.7489692401,0.9647664978\O,0,2.0664876871,1.4077136313
 ,1.7614250048\C,0,4.1815399896,0.7412477194,0.8806563354\C,0,4.8115051
 761,-0.0122670382,-0.0251561504\H,0,5.894004371,-0.0177870814,-0.08588
 41436\H,0,4.2662839242,-0.6356701264,-0.7208872253\C,0,4.8802836425,1.
 626573077,1.8731692208\H,0,4.5647352645,2.6663265904,1.7553889523\H,0,
 4.6263336673,1.338350468,2.8964207726\H,0,5.9618893883,1.5677948001,1.
 7464965194\\Version=ES64L-G16RevA.03\State=1-A\HF=-306.5974026\RMSD=3.
 678e-09\Dipole=0.4445145,-0.3360349,-0.4118966\Quadrupole=3.043609,-1.
 3677992,-1.6758098,1.9339407,2.0352878,-0.3924304\PG=C01 [X(C4H6O2)]\\
 @


 SOME PEOPLE TRY TO PULL THE WOOL OVER YOUR EYES
 USING THE WRONG YARN.
 Job cpu time:       0 days  0 hours  0 minutes 45.1 seconds.
 Elapsed time:       0 days  0 hours  0 minutes 45.9 seconds.
 File lengths (MBytes):  RWF=    272 Int=      0 D2E=      0 Chk=     32 Scr=     32
 Normal termination of Gaussian 16 at Thu Apr 21 16:32:01 2022.
