 Entering Gaussian System, Link 0=g16
 Initial command:
 /opt/ohpc/pub/libs/gaussian/g16-A.03/haswell/g16/l1.exe "g16_scratch/Gau-258076.inp" -scrdir="g16_scratch/"
 Entering Link 1 = /opt/ohpc/pub/libs/gaussian/g16-A.03/haswell/g16/l1.exe PID=    258077.
  
 Copyright (c) 1988,1990,1992,1993,1995,1998,2003,2009,2016,
            Gaussian, Inc.  All Rights Reserved.
  
 This is part of the Gaussian(R) 16 program.  It is based on
 the Gaussian(R) 09 system (copyright 2009, Gaussian, Inc.),
 the Gaussian(R) 03 system (copyright 2003, Gaussian, Inc.),
 the Gaussian(R) 98 system (copyright 1998, Gaussian, Inc.),
 the Gaussian(R) 94 system (copyright 1995, Gaussian, Inc.),
 the Gaussian 92(TM) system (copyright 1992, Gaussian, Inc.),
 the Gaussian 90(TM) system (copyright 1990, Gaussian, Inc.),
 the Gaussian 88(TM) system (copyright 1988, Gaussian, Inc.),
 the Gaussian 86(TM) system (copyright 1986, Carnegie Mellon
 University), and the Gaussian 82(TM) system (copyright 1983,
 Carnegie Mellon University). Gaussian is a federally registered
 trademark of Gaussian, Inc.
  
 This software contains proprietary and confidential information,
 including trade secrets, belonging to Gaussian, Inc.
  
 This software is provided under written license and may be
 used, copied, transmitted, or stored only in accord with that
 written license.
  
 The following legend is applicable only to US Government
 contracts under FAR:
  
                    RESTRICTED RIGHTS LEGEND
  
 Use, reproduction and disclosure by the US Government is
 subject to restrictions as set forth in subparagraphs (a)
 and (c) of the Commercial Computer Software - Restricted
 Rights clause in FAR 52.227-19.
  
 Gaussian, Inc.
 340 Quinnipiac St., Bldg. 40, Wallingford CT 06492
  
  
 ---------------------------------------------------------------
 Warning -- This program may not be used in any manner that
 competes with the business of Gaussian, Inc. or will provide
 assistance to any competitor of Gaussian, Inc.  The licensee
 of this program is prohibited from giving any competitor of
 Gaussian, Inc. access to this program.  By using this program,
 the user acknowledges that Gaussian, Inc. is engaged in the
 business of creating and licensing software in the field of
 computational chemistry and represents and warrants to the
 licensee that it is not a competitor of Gaussian, Inc. and that
 it will not use this program in any manner prohibited above.
 ---------------------------------------------------------------
  

 Cite this work as:
 Gaussian 16, Revision A.03,
 M. J. Frisch, G. W. Trucks, H. B. Schlegel, G. E. Scuseria, 
 M. A. Robb, J. R. Cheeseman, G. Scalmani, V. Barone, 
 G. A. Petersson, H. Nakatsuji, X. Li, M. Caricato, A. V. Marenich, 
 J. Bloino, B. G. Janesko, R. Gomperts, B. Mennucci, H. P. Hratchian, 
 J. V. Ortiz, A. F. Izmaylov, J. L. Sonnenberg, D. Williams-Young, 
 F. Ding, F. Lipparini, F. Egidi, J. Goings, B. Peng, A. Petrone, 
 T. Henderson, D. Ranasinghe, V. G. Zakrzewski, J. Gao, N. Rega, 
 G. Zheng, W. Liang, M. Hada, M. Ehara, K. Toyota, R. Fukuda, 
 J. Hasegawa, M. Ishida, T. Nakajima, Y. Honda, O. Kitao, H. Nakai, 
 T. Vreven, K. Throssell, J. A. Montgomery, Jr., J. E. Peralta, 
 F. Ogliaro, M. J. Bearpark, J. J. Heyd, E. N. Brothers, K. N. Kudin, 
 V. N. Staroverov, T. A. Keith, R. Kobayashi, J. Normand, 
 K. Raghavachari, A. P. Rendell, J. C. Burant, S. S. Iyengar, 
 J. Tomasi, M. Cossi, J. M. Millam, M. Klene, C. Adamo, R. Cammi, 
 J. W. Ochterski, R. L. Martin, K. Morokuma, O. Farkas, 
 J. B. Foresman, and D. J. Fox, Gaussian, Inc., Wallingford CT, 2016.
 
 ******************************************
 Gaussian 16:  ES64L-G16RevA.03 25-Dec-2016
                21-Apr-2022 
 ******************************************
 %Mem=192GB
 %NProcShared=48
 Will use up to   48 processors via shared memory.
 %Chk=MAA1-DMA1-2.chk
 ---------------------------------------------------------------------
 #n B3LYP/6-311++G(d,p) Opt freq EmpiricalDispersion=GD3BJ IOp(6/33=2)
 ---------------------------------------------------------------------
 1/18=20,19=15,26=3,38=1/1,3;
 2/9=110,12=2,17=6,18=5,40=1/2;
 3/5=4,6=6,7=1111,11=2,25=1,30=1,71=1,74=-5,124=41/1,2,3;
 4//1;
 5/5=2,38=5/2;
 6/7=2,8=2,9=2,10=2,28=1,33=2/1;
 7//1,2,3,16;
 1/18=20,19=15,26=3/3(2);
 2/9=110/2;
 99//99;
 2/9=110/2;
 3/5=4,6=6,7=1111,11=2,25=1,30=1,71=1,74=-5,124=41/1,2,3;
 4/5=5,16=3,69=1/1;
 5/5=2,38=5/2;
 7//1,2,3,16;
 1/18=20,19=15,26=3/3(-5);
 2/9=110/2;
 6/7=2,8=2,9=2,10=2,19=2,28=1,33=2/1;
 99/9=1/99;
 -----------------
 MAA1-DMA1 geo opt
 -----------------
 Symbolic Z-matrix:
 Charge =  0 Multiplicity = 1
 C                     11.06     12.218    1.975 
 C                     12.496    12.789    1.921 
 C                     12.813    13.9      1.241 
 C                     13.58     12.088    2.591 
 O                     14.776    12.406    2.617 
 O                     13.276    10.98     3.32 
 H                     10.564    12.23     1.005 
 H                     10.459    12.924    2.548 
 H                     11.035    11.197    2.357 
 H                     12.024    14.353    0.658 
 H                     13.82     14.269    1.117 
 H                     14.096    10.647    3.651 
 C                     18.415    9.864     7.372 
 C                     17.375    9.423     6.362 
 C                     17.377    8.248     5.748 
 C                     16.279    10.3      5.941 
 O                     15.435    10.134    5.113 
 O                     16.338    11.549    6.569 
 C                     15.494    12.618    6.152 
 C                     14.073    12.673    6.876 
 N                     13.404    14.015    6.577 
 C                     12.842    14.019    5.254 
 C                     12.191    14.255    7.432 
 H                     19.133    9.062     7.546 
 H                     17.926    10.166    8.298 
 H                     19.095    10.659    7.066 
 H                     18.116    7.489     5.961 
 H                     16.555    8.031     5.082 
 H                     15.499    12.608    5.062 
 H                     15.958    13.551    6.47 
 H                     14.369    12.55     7.918 
 H                     13.436    11.849    6.557 
 H                     12.048    13.272    5.229 
 H                     13.539    13.741    4.463 
 H                     12.488    14.985    4.892 
 H                     12.504    14.418    8.463 
 H                     11.45     13.455    7.429 
 H                     11.71     15.206    7.204 
 
 Add virtual bond connecting atoms O17        and H12        Dist= 3.87D+00.

 GradGradGradGradGradGradGradGradGradGradGradGradGradGradGradGradGradGrad
 Berny optimization.
 Initialization pass.
                           ----------------------------
                           !    Initial Parameters    !
                           ! (Angstroms and Degrees)  !
 --------------------------                            --------------------------
 ! Name  Definition              Value          Derivative Info.                !
 --------------------------------------------------------------------------------
 ! R1    R(1,2)                  1.5463         estimate D2E/DX2                !
 ! R2    R(1,7)                  1.0895         estimate D2E/DX2                !
 ! R3    R(1,8)                  1.0899         estimate D2E/DX2                !
 ! R4    R(1,9)                  1.0904         estimate D2E/DX2                !
 ! R5    R(2,3)                  1.3406         estimate D2E/DX2                !
 ! R6    R(2,4)                  1.4544         estimate D2E/DX2                !
 ! R7    R(3,10)                 1.0806         estimate D2E/DX2                !
 ! R8    R(3,11)                 1.0796         estimate D2E/DX2                !
 ! R9    R(4,5)                  1.2378         estimate D2E/DX2                !
 ! R10   R(4,6)                  1.3607         estimate D2E/DX2                !
 ! R11   R(6,12)                 0.9449         estimate D2E/DX2                !
 ! R12   R(12,17)                2.0478         estimate D2E/DX2                !
 ! R13   R(13,14)                1.5153         estimate D2E/DX2                !
 ! R14   R(13,24)                1.0904         estimate D2E/DX2                !
 ! R15   R(13,25)                1.0899         estimate D2E/DX2                !
 ! R16   R(13,26)                1.09           estimate D2E/DX2                !
 ! R17   R(14,15)                1.3258         estimate D2E/DX2                !
 ! R18   R(14,16)                1.4655         estimate D2E/DX2                !
 ! R19   R(15,27)                1.0805         estimate D2E/DX2                !
 ! R20   R(15,28)                1.08           estimate D2E/DX2                !
 ! R21   R(16,17)                1.1939         estimate D2E/DX2                !
 ! R22   R(16,18)                1.3992         estimate D2E/DX2                !
 ! R23   R(18,19)                1.4244         estimate D2E/DX2                !
 ! R24   R(19,20)                1.5958         estimate D2E/DX2                !
 ! R25   R(19,29)                1.0901         estimate D2E/DX2                !
 ! R26   R(19,30)                1.0895         estimate D2E/DX2                !
 ! R27   R(20,21)                1.529          estimate D2E/DX2                !
 ! R28   R(20,31)                1.0902         estimate D2E/DX2                !
 ! R29   R(20,32)                1.0893         estimate D2E/DX2                !
 ! R30   R(21,22)                1.4374         estimate D2E/DX2                !
 ! R31   R(21,23)                1.5033         estimate D2E/DX2                !
 ! R32   R(22,33)                1.0904         estimate D2E/DX2                !
 ! R33   R(22,34)                1.0903         estimate D2E/DX2                !
 ! R34   R(22,35)                1.0906         estimate D2E/DX2                !
 ! R35   R(23,36)                1.0897         estimate D2E/DX2                !
 ! R36   R(23,37)                1.0905         estimate D2E/DX2                !
 ! R37   R(23,38)                1.0898         estimate D2E/DX2                !
 ! A1    A(2,1,7)              112.806          estimate D2E/DX2                !
 ! A2    A(2,1,8)              106.9323         estimate D2E/DX2                !
 ! A3    A(2,1,9)              112.2896         estimate D2E/DX2                !
 ! A4    A(7,1,8)              102.1157         estimate D2E/DX2                !
 ! A5    A(7,1,9)              108.166          estimate D2E/DX2                !
 ! A6    A(8,1,9)              114.1858         estimate D2E/DX2                !
 ! A7    A(1,2,3)              122.9107         estimate D2E/DX2                !
 ! A8    A(1,2,4)              119.873          estimate D2E/DX2                !
 ! A9    A(3,2,4)              117.1845         estimate D2E/DX2                !
 ! A10   A(2,3,10)             116.6435         estimate D2E/DX2                !
 ! A11   A(2,3,11)             124.1986         estimate D2E/DX2                !
 ! A12   A(10,3,11)            118.4117         estimate D2E/DX2                !
 ! A13   A(2,4,5)              127.2995         estimate D2E/DX2                !
 ! A14   A(2,4,6)              118.2132         estimate D2E/DX2                !
 ! A15   A(5,4,6)              114.4439         estimate D2E/DX2                !
 ! A16   A(4,6,12)             106.3055         estimate D2E/DX2                !
 ! A17   A(6,12,17)            154.9323         estimate D2E/DX2                !
 ! A18   A(14,13,24)           110.1348         estimate D2E/DX2                !
 ! A19   A(14,13,25)           109.817          estimate D2E/DX2                !
 ! A20   A(14,13,26)           116.9569         estimate D2E/DX2                !
 ! A21   A(24,13,25)           111.3255         estimate D2E/DX2                !
 ! A22   A(24,13,26)            99.8144         estimate D2E/DX2                !
 ! A23   A(25,13,26)           108.4415         estimate D2E/DX2                !
 ! A24   A(13,14,15)           124.4433         estimate D2E/DX2                !
 ! A25   A(13,14,16)           122.0466         estimate D2E/DX2                !
 ! A26   A(15,14,16)           113.4828         estimate D2E/DX2                !
 ! A27   A(14,15,27)           122.1602         estimate D2E/DX2                !
 ! A28   A(14,15,28)           117.5513         estimate D2E/DX2                !
 ! A29   A(27,15,28)           120.0645         estimate D2E/DX2                !
 ! A30   A(14,16,17)           130.144          estimate D2E/DX2                !
 ! A31   A(14,16,18)           111.9451         estimate D2E/DX2                !
 ! A32   A(17,16,18)           117.7213         estimate D2E/DX2                !
 ! A33   A(12,17,16)           157.296          estimate D2E/DX2                !
 ! A34   A(16,18,19)           120.8988         estimate D2E/DX2                !
 ! A35   A(18,19,20)           114.8772         estimate D2E/DX2                !
 ! A36   A(18,19,29)           106.4472         estimate D2E/DX2                !
 ! A37   A(18,19,30)           107.7521         estimate D2E/DX2                !
 ! A38   A(20,19,29)           117.2633         estimate D2E/DX2                !
 ! A39   A(20,19,30)           102.5512         estimate D2E/DX2                !
 ! A40   A(29,19,30)           107.3241         estimate D2E/DX2                !
 ! A41   A(19,20,21)           109.3384         estimate D2E/DX2                !
 ! A42   A(19,20,31)           100.835          estimate D2E/DX2                !
 ! A43   A(19,20,32)           111.2114         estimate D2E/DX2                !
 ! A44   A(21,20,31)           113.8739         estimate D2E/DX2                !
 ! A45   A(21,20,32)           110.5366         estimate D2E/DX2                !
 ! A46   A(31,20,32)           110.692          estimate D2E/DX2                !
 ! A47   A(20,21,22)           110.701          estimate D2E/DX2                !
 ! A48   A(20,21,23)           112.4537         estimate D2E/DX2                !
 ! A49   A(22,21,23)           101.9788         estimate D2E/DX2                !
 ! A50   A(21,22,33)           107.6909         estimate D2E/DX2                !
 ! A51   A(21,22,34)           114.6505         estimate D2E/DX2                !
 ! A52   A(21,22,35)           115.7763         estimate D2E/DX2                !
 ! A53   A(33,22,34)           105.9131         estimate D2E/DX2                !
 ! A54   A(33,22,35)           111.2723         estimate D2E/DX2                !
 ! A55   A(34,22,35)           101.1004         estimate D2E/DX2                !
 ! A56   A(21,23,36)           109.2816         estimate D2E/DX2                !
 ! A57   A(21,23,37)           115.443          estimate D2E/DX2                !
 ! A58   A(21,23,38)           112.1133         estimate D2E/DX2                !
 ! A59   A(36,23,37)           107.9099         estimate D2E/DX2                !
 ! A60   A(36,23,38)           101.1966         estimate D2E/DX2                !
 ! A61   A(37,23,38)           109.8581         estimate D2E/DX2                !
 ! D1    D(7,1,2,3)             43.2504         estimate D2E/DX2                !
 ! D2    D(7,1,2,4)           -134.6416         estimate D2E/DX2                !
 ! D3    D(8,1,2,3)            -68.2197         estimate D2E/DX2                !
 ! D4    D(8,1,2,4)            113.8883         estimate D2E/DX2                !
 ! D5    D(9,1,2,3)            165.7905         estimate D2E/DX2                !
 ! D6    D(9,1,2,4)            -12.1015         estimate D2E/DX2                !
 ! D7    D(1,2,3,10)            -4.4694         estimate D2E/DX2                !
 ! D8    D(1,2,3,11)          -174.3882         estimate D2E/DX2                !
 ! D9    D(4,2,3,10)           173.4757         estimate D2E/DX2                !
 ! D10   D(4,2,3,11)             3.5569         estimate D2E/DX2                !
 ! D11   D(1,2,4,5)            178.6439         estimate D2E/DX2                !
 ! D12   D(1,2,4,6)             -3.8982         estimate D2E/DX2                !
 ! D13   D(3,2,4,5)              0.6333         estimate D2E/DX2                !
 ! D14   D(3,2,4,6)            178.0912         estimate D2E/DX2                !
 ! D15   D(2,4,6,12)           178.0951         estimate D2E/DX2                !
 ! D16   D(5,4,6,12)            -4.126          estimate D2E/DX2                !
 ! D17   D(4,6,12,17)          117.2322         estimate D2E/DX2                !
 ! D18   D(6,12,17,16)         -80.0628         estimate D2E/DX2                !
 ! D19   D(24,13,14,15)         -2.3266         estimate D2E/DX2                !
 ! D20   D(24,13,14,16)        179.6982         estimate D2E/DX2                !
 ! D21   D(25,13,14,15)       -125.2721         estimate D2E/DX2                !
 ! D22   D(25,13,14,16)         56.7528         estimate D2E/DX2                !
 ! D23   D(26,13,14,15)        110.637          estimate D2E/DX2                !
 ! D24   D(26,13,14,16)        -67.3381         estimate D2E/DX2                !
 ! D25   D(13,14,15,27)          2.6386         estimate D2E/DX2                !
 ! D26   D(13,14,15,28)        177.1997         estimate D2E/DX2                !
 ! D27   D(16,14,15,27)       -179.2326         estimate D2E/DX2                !
 ! D28   D(16,14,15,28)         -4.6715         estimate D2E/DX2                !
 ! D29   D(13,14,16,17)        175.324          estimate D2E/DX2                !
 ! D30   D(13,14,16,18)          0.5306         estimate D2E/DX2                !
 ! D31   D(15,14,16,17)         -2.8554         estimate D2E/DX2                !
 ! D32   D(15,14,16,18)       -177.6488         estimate D2E/DX2                !
 ! D33   D(14,16,17,12)       -147.6604         estimate D2E/DX2                !
 ! D34   D(18,16,17,12)         26.8833         estimate D2E/DX2                !
 ! D35   D(14,16,18,19)        170.2672         estimate D2E/DX2                !
 ! D36   D(17,16,18,19)         -5.2383         estimate D2E/DX2                !
 ! D37   D(16,18,19,20)         88.5882         estimate D2E/DX2                !
 ! D38   D(16,18,19,29)        -42.9689         estimate D2E/DX2                !
 ! D39   D(16,18,19,30)       -157.8359         estimate D2E/DX2                !
 ! D40   D(18,19,20,21)        167.542          estimate D2E/DX2                !
 ! D41   D(18,19,20,31)         47.2849         estimate D2E/DX2                !
 ! D42   D(18,19,20,32)        -70.1139         estimate D2E/DX2                !
 ! D43   D(29,19,20,21)        -66.2974         estimate D2E/DX2                !
 ! D44   D(29,19,20,31)        173.4455         estimate D2E/DX2                !
 ! D45   D(29,19,20,32)         56.0467         estimate D2E/DX2                !
 ! D46   D(30,19,20,21)         50.9556         estimate D2E/DX2                !
 ! D47   D(30,19,20,31)        -69.3015         estimate D2E/DX2                !
 ! D48   D(30,19,20,32)        173.2997         estimate D2E/DX2                !
 ! D49   D(19,20,21,22)         77.8093         estimate D2E/DX2                !
 ! D50   D(19,20,21,23)       -168.8471         estimate D2E/DX2                !
 ! D51   D(31,20,21,22)       -170.2782         estimate D2E/DX2                !
 ! D52   D(31,20,21,23)        -56.9347         estimate D2E/DX2                !
 ! D53   D(32,20,21,22)        -44.938          estimate D2E/DX2                !
 ! D54   D(32,20,21,23)         68.4055         estimate D2E/DX2                !
 ! D55   D(20,21,22,33)         64.3627         estimate D2E/DX2                !
 ! D56   D(20,21,22,34)        -53.2194         estimate D2E/DX2                !
 ! D57   D(20,21,22,35)       -170.4032         estimate D2E/DX2                !
 ! D58   D(23,21,22,33)        -55.4762         estimate D2E/DX2                !
 ! D59   D(23,21,22,34)       -173.0583         estimate D2E/DX2                !
 ! D60   D(23,21,22,35)         69.7579         estimate D2E/DX2                !
 ! D61   D(20,21,23,36)         69.4988         estimate D2E/DX2                !
 ! D62   D(20,21,23,37)        -52.3192         estimate D2E/DX2                !
 ! D63   D(20,21,23,38)       -179.143          estimate D2E/DX2                !
 ! D64   D(22,21,23,36)       -171.9017         estimate D2E/DX2                !
 ! D65   D(22,21,23,37)         66.2803         estimate D2E/DX2                !
 ! D66   D(22,21,23,38)        -60.5435         estimate D2E/DX2                !
 --------------------------------------------------------------------------------
 Trust Radius=3.00D-01 FncErr=1.00D-07 GrdErr=1.00D-06 EigMax=2.50D+02 EigMin=1.00D-04
 Number of steps in this run=    174 maximum allowed number of steps=    228.
 GradGradGradGradGradGradGradGradGradGradGradGradGradGradGradGradGradGrad

                          Input orientation:                          
 ---------------------------------------------------------------------
 Center     Atomic      Atomic             Coordinates (Angstroms)
 Number     Number       Type             X           Y           Z
 ---------------------------------------------------------------------
      1          6           0       11.060000   12.218000    1.975000
      2          6           0       12.496000   12.789000    1.921000
      3          6           0       12.813000   13.900000    1.241000
      4          6           0       13.580000   12.088000    2.591000
      5          8           0       14.776000   12.406000    2.617000
      6          8           0       13.276000   10.980000    3.320000
      7          1           0       10.564000   12.230000    1.005000
      8          1           0       10.459000   12.924000    2.548000
      9          1           0       11.035000   11.197000    2.357000
     10          1           0       12.024000   14.353000    0.658000
     11          1           0       13.820000   14.269000    1.117000
     12          1           0       14.096000   10.647000    3.651000
     13          6           0       18.415000    9.864000    7.372000
     14          6           0       17.375000    9.423000    6.362000
     15          6           0       17.377000    8.248000    5.748000
     16          6           0       16.279000   10.300000    5.941000
     17          8           0       15.435000   10.134000    5.113000
     18          8           0       16.338000   11.549000    6.569000
     19          6           0       15.494000   12.618000    6.152000
     20          6           0       14.073000   12.673000    6.876000
     21          7           0       13.404000   14.015000    6.577000
     22          6           0       12.842000   14.019000    5.254000
     23          6           0       12.191000   14.255000    7.432000
     24          1           0       19.133000    9.062000    7.546000
     25          1           0       17.926000   10.166000    8.298000
     26          1           0       19.095000   10.659000    7.066000
     27          1           0       18.116000    7.489000    5.961000
     28          1           0       16.555000    8.031000    5.082000
     29          1           0       15.499000   12.608000    5.062000
     30          1           0       15.958000   13.551000    6.470000
     31          1           0       14.369000   12.550000    7.918000
     32          1           0       13.436000   11.849000    6.557000
     33          1           0       12.048000   13.272000    5.229000
     34          1           0       13.539000   13.741000    4.463000
     35          1           0       12.488000   14.985000    4.892000
     36          1           0       12.504000   14.418000    8.463000
     37          1           0       11.450000   13.455000    7.429000
     38          1           0       11.710000   15.206000    7.204000
 ---------------------------------------------------------------------
                    Distance matrix (angstroms):
                    1          2          3          4          5
     1  C    0.000000
     2  C    1.546303   0.000000
     3  C    2.537891   1.340601   0.000000
     4  C    2.597452   1.454427   2.386238   0.000000
     5  O    3.775734   2.414437   2.824674   1.237827   0.000000
     6  O    2.872686   2.416212   3.614279   1.360706   2.185792
     7  H    1.089523   2.210014   2.811156   3.410545   4.513365
     8  H    1.089939   2.135585   2.863938   3.231313   4.348514
     9  H    1.090408   2.204332   3.422419   2.706596   3.940097
    10  H    2.687380   2.064957   1.080564   3.359740   3.898973
    11  H    3.544061   2.142380   1.079623   2.643300   2.575792
    12  H    3.807140   3.184504   4.246905   1.861810   2.150729
    13  C    9.421515   8.561751   9.233681   7.154115   6.504930
    14  C    8.181505   7.406556   8.190239   5.977014   5.447762
    15  C    8.360677   7.687052   8.549167   6.255354   5.818705
    16  C    6.829776   6.055296   6.860259   4.658760   4.212270
    17  O    5.773277   5.086807   6.004167   3.690478   3.438936
    18  O    7.029202   6.156498   6.807379   4.870479   4.335043
    19  C    6.104726   5.188314   5.740140   4.077379   3.613405
    20  C    5.771048   5.201193   5.903080   4.352758   4.324879
    21  N    5.468267   4.899579   5.369861   4.430858   4.489194
    22  C    4.143786   3.569524   4.014869   3.371198   3.646354
    23  C    5.933581   5.710806   6.232286   5.482745   5.769337
    24  H   10.303868   9.464720  10.153899   8.033960   7.379758
    25  H    9.556829   8.776740   9.480864   7.426416   6.871234
    26  H    9.638983   8.634508   9.159598   7.244508   6.442001
    27  H    9.382898   8.717568   9.565622   7.285808   6.820178
    28  H    7.574922   7.007565   7.949906   5.613818   5.327447
    29  H    5.420922   4.349328   4.846019   3.171561   2.557647
    30  H    6.780289   5.767104   6.111896   4.779319   4.189721
    31  H    6.810210   6.287230   6.987558   5.404895   5.318551
    32  H    5.174578   4.822831   5.731892   3.975803   4.198744
    33  H    3.560278   3.372960   4.108984   3.272296   3.874853
    34  H    3.828200   2.907906   3.306606   2.497694   2.592317
    35  H    4.266657   3.694499   3.822650   3.857418   4.130594
    36  H    7.001377   6.741770   7.247144   6.408359   6.586793
    37  H    5.606102   5.645860   6.351940   5.460021   5.942897
    38  H    6.057482   5.862574   6.203194   5.873550   6.187158
                    6          7          8          9         10
     6  O    0.000000
     7  H    3.778448   0.000000
     8  H    3.508648   1.695143   0.000000
     9  H    2.448783   1.765456   1.830515   0.000000
    10  H    4.475587   2.599834   2.839607   3.718206   0.000000
    11  H    3.995831   3.843384   3.892699   4.327934   1.855627
    12  H    0.944907   4.688521   4.430475   3.368480   5.194773
    13  C    6.638786  10.381466   9.794514   9.021725  10.299213
    14  C    5.336648   9.108590   8.639135   7.706017   9.245200
    15  C    5.493379   9.207027   8.942242   7.772802   9.582992
    16  C    4.043520   7.794243   7.229815   6.414764   7.902020
    17  O    2.931185   6.707870   6.254910   5.299576   7.020107
    18  O    4.500623   8.047418   7.254082   6.781346   7.836640
    19  C    3.952568   7.137720   6.199490   6.025276   6.725709
    20  C    4.018282   6.854048   5.644075   5.641753   6.759018
    21  N    4.453724   6.503769   5.108439   5.600150   6.087134
    22  C    3.628255   5.142354   3.768309   4.429621   4.680160
    23  C    5.367625   6.932105   5.350219   6.036831   6.776767
    24  H    7.472767  11.236043  10.730020   9.851982  11.223952
    25  H    6.860436  10.566314   9.819631   9.156655  10.523031
    26  H    6.927937  10.582142  10.006150   9.350279  10.232651
    27  H    6.525915  10.201555   9.990868   8.768047  10.599470
    28  H    4.749009   8.375298   8.217288   6.922397   8.948152
    29  H    3.259858   6.399715   5.641068   5.406962   5.875021
    30  H    4.870900   7.791438   6.783378   6.833302   7.063916
    31  H    4.980076   7.897468   6.653185   6.623510   7.839479
    32  H    3.355433   6.262448   5.107860   4.881588   6.562161
    33  H    3.225760   4.596759   3.135887   3.685129   4.697146
    34  H    2.999790   4.805363   3.717676   4.144537   4.140989
    35  H    4.374032   5.138148   3.722754   4.783971   4.305981
    36  H    6.234282   8.010787   6.434383   7.058048   7.820016
    37  H    5.132619   6.599500   5.008813   5.567403   6.854365
    38  H    5.949528   6.971190   5.333935   6.326224   6.608806
                   11         12         13         14         15
    11  H    0.000000
    12  H    4.429020   0.000000
    13  C    8.924297   5.754363   0.000000
    14  C    7.976952   4.427137   1.515315   0.000000
    15  C    8.387541   4.573573   2.515209   1.325755   0.000000
    16  C    6.713465   3.182766   2.607749   1.465464   2.335285
    17  O    5.972811   2.047812   3.749184   2.414357   2.780573
    18  O    6.592650   3.788785   2.792483   2.374467   3.556707
    19  C    5.556915   3.477678   4.195850   3.713527   4.775542
    20  C    5.981413   3.808652   5.195138   4.661534   5.636437
    21  N    5.481713   4.514838   6.555375   6.074663   7.051968
    22  C    4.258374   3.938592   7.266930   6.549730   7.356270
    23  C    6.521738   5.562612   7.617260   7.167076   8.112614
    24  H    9.832236   6.561602   1.090415   2.150056   2.641768
    25  H    9.233667   6.041098   1.089863   2.145634   3.237688
    26  H    8.732029   6.054120   1.089982   2.231975   3.240612
    27  H    9.374879   5.609765   2.778659   2.109559   1.080542
    28  H    7.881250   3.864958   3.473268   2.061180   1.079967
    29  H    4.597933   2.793716   4.622628   3.918367   4.796570
    30  H    5.808716   4.455000   4.521551   4.365769   5.536845
    31  H    7.036332   4.680088   4.887006   4.608178   5.680156
    32  H    5.966360   3.213291   5.421706   4.630251   5.399367
    33  H    4.587215   3.684428   7.532968   6.668989   7.342219
    34  H    3.399038   3.246911   6.875230   6.079985   6.823087
    35  H    4.066633   4.789988   8.216104   7.548478   8.367928
    36  H    7.464434   6.317456   7.541162   7.286348   8.317827
    37  H    6.791233   5.399950   7.836438   7.245767   8.066470
    38  H    6.510118   6.253102   8.574509   8.139059   9.091127
                   16         17         18         19         20
    16  C    0.000000
    17  O    1.193933   0.000000
    18  O    1.399238   2.222064   0.000000
    19  C    2.456394   2.693187   1.424425   0.000000
    20  C    3.372208   3.377830   2.547126   1.595758   0.000000
    21  N    4.740395   4.618487   3.832698   2.549575   1.529028
    22  C    5.110372   4.672981   4.477962   3.130864   2.440893
    23  C    5.880208   5.734452   5.026412   3.902304   2.520671
    24  H    3.500569   4.554545   3.866746   5.275480   6.252345
    25  H    2.878544   4.043554   2.724679   4.065986   4.811730
    26  H    3.053582   4.181559   2.939415   4.200033   5.414128
    27  H    3.358078   3.860426   4.473762   5.763506   6.637539
    28  H    2.441806   2.382849   3.825517   4.828166   5.561198
    29  H    2.589962   2.475353   2.023969   1.090057   2.308310
    30  H    3.309363   3.713606   2.040148   1.089454   2.118713
    31  H    3.552341   3.852459   2.588197   2.094995   1.090188
    32  H    3.295680   3.003725   2.917490   2.233999   1.089269
    33  H    5.219300   4.618687   4.813359   3.626922   2.678066
    34  H    4.640319   4.126471   4.132130   2.817069   2.692276
    35  H    6.117296   5.680304   5.425949   4.028191   3.434214
    36  H    6.129358   6.177857   5.149559   4.185788   2.832906
    37  H    5.957131   5.680944   5.316482   4.322642   2.792394
    38  H    6.822006   6.631221   5.932559   4.703520   3.479575
                   21         22         23         24         25
    21  N    0.000000
    22  C    1.437424   0.000000
    23  C    1.503328   2.285428   0.000000
    24  H    7.634960   8.330774   8.670156   0.000000
    25  H    6.182647   7.068140   7.096485   1.800325   0.000000
    26  H    6.624903   7.326183   7.792970   1.668009   1.768455
    27  H    8.072860   8.423528   9.113080   2.453741   3.558651
    28  H    6.926188   7.047843   7.956455   3.712188   4.096404
    29  H    2.943450   3.014537   4.390031   5.652462   4.724975
    30  H    2.598011   3.377445   3.951120   5.602635   4.321207
    31  H    2.208106   3.403907   2.808363   5.916099   4.298849
    32  H    2.166329   2.599912   2.846838   6.418824   5.101340
    33  H    2.051314   1.090445   2.416598   8.560947   7.322355
    34  H    2.135953   1.090309   3.300949   7.917750   6.836199
    35  H    2.149228   1.090649   2.659457   9.288793   8.024677
    36  H    2.128240   3.251327   1.089724   8.571538   6.892374
    37  H    2.204001   2.643177   1.090454   8.851024   7.315139
    38  H    2.163619   2.548116   1.089838   9.641920   8.076948
                   26         27         28         29         30
    26  H    0.000000
    27  H    3.496908   0.000000
    28  H    4.158634   1.871664   0.000000
    29  H    4.554759   5.819025   4.697283   0.000000
    30  H    4.308091   6.454757   5.723055   1.755675   0.000000
    31  H    5.161091   6.594208   5.765662   3.071970   2.371419
    32  H    5.805124   6.423956   5.145961   2.658397   3.043823
    33  H    7.737089   8.414246   6.913952   3.518265   4.111693
    34  H    6.866110   7.891796   6.487181   2.341813   3.148922
    35  H    8.191032   9.434361   8.058207   3.839941   4.072756
    36  H    7.715113   9.260971   8.284656   4.879849   4.080913
    37  H    8.148338   9.065525   7.809559   4.765973   4.609876
    38  H    8.673666  10.106135   8.913896   5.068953   4.617714
                   31         32         33         34         35
    31  H    0.000000
    32  H    1.792822   0.000000
    33  H    3.624782   2.390619   0.000000
    34  H    3.747587   2.824024   1.740631   0.000000
    35  H    4.315560   3.674973   1.800427   1.684096   0.000000
    36  H    2.695306   3.331849   3.461215   4.186831   3.615769
    37  H    3.094949   2.698855   2.287158   3.639076   3.139222
    38  H    3.825495   3.829769   2.784820   3.606182   2.449381
                   36         37         38
    36  H    0.000000
    37  H    1.762794   0.000000
    38  H    1.684180   1.784440   0.000000
 Stoichiometry    C12H21NO4
 Framework group  C1[X(C12H21NO4)]
 Deg. of freedom   108
 Full point group                 C1      NOp   1
 Largest Abelian subgroup         C1      NOp   1
 Largest concise Abelian subgroup C1      NOp   1
                         Standard orientation:                         
 ---------------------------------------------------------------------
 Center     Atomic      Atomic             Coordinates (Angstroms)
 Number     Number       Type             X           Y           Z
 ---------------------------------------------------------------------
      1          6           0        4.120792   -1.433213   -1.213684
      2          6           0        3.404690   -1.460237    0.156542
      3          6           0        4.064244   -1.443548    1.323555
      4          6           0        1.954322   -1.552210    0.214252
      5          8           0        1.245927   -1.606982    1.227856
      6          8           0        1.261305   -1.530889   -0.956557
      7          1           0        4.985837   -2.094536   -1.251222
      8          1           0        4.580216   -0.449776   -1.312413
      9          1           0        3.453746   -1.699090   -2.034262
     10          1           0        5.142748   -1.484939    1.271259
     11          1           0        3.592336   -1.548931    2.288845
     12          1           0        0.349961   -1.629443   -0.727234
     13          6           0       -5.026525   -0.023240    0.547993
     14          6           0       -3.970792   -0.856067   -0.150581
     15          6           0       -4.207705   -2.009111   -0.760489
     16          6           0       -2.559009   -0.463621   -0.171576
     17          8           0       -1.606823   -1.037908   -0.606334
     18          8           0       -2.337458    0.729333    0.525303
     19          6           0       -1.014856    1.179569    0.802789
     20          6           0       -0.363696    2.091000   -0.333752
     21          7           0        0.902817    2.752070    0.211094
     22          6           0        1.995840    1.818700    0.228745
     23          6           0        1.425989    3.828032   -0.699176
     24          1           0       -6.005936   -0.489859    0.438333
     25          1           0       -5.023075    0.990034    0.146663
     26          1           0       -4.969675    0.036185    1.634868
     27          1           0       -5.202014   -2.424838   -0.838541
     28          1           0       -3.380222   -2.487623   -1.263110
     29          1           0       -0.451556    0.303334    1.123927
     30          1           0       -1.067026    1.860658    1.651497
     31          1           0       -1.177749    2.789770   -0.527520
     32          1           0       -0.136967    1.507470   -1.225151
     33          1           0        2.215939    1.546599   -0.804012
     34          1           0        1.785918    0.882329    0.746351
     35          1           0        2.894277    2.150280    0.750647
     36          1           0        0.741375    4.675734   -0.684929
     37          1           0        1.571932    3.532288   -1.738564
     38          1           0        2.336837    4.285113   -0.312941
 ---------------------------------------------------------------------
 Rotational constants (GHZ):           0.5560576           0.2470682           0.1899945
 Standard basis: 6-311++G(d,p) (5D, 7F)
 There are   538 symmetry adapted cartesian basis functions of A   symmetry.
 There are   521 symmetry adapted basis functions of A   symmetry.
   521 basis functions,   801 primitive gaussians,   538 cartesian basis functions
    66 alpha electrons       66 beta electrons
       nuclear repulsion energy      1253.6060443276 Hartrees.
 NAtoms=   38 NActive=   38 NUniq=   38 SFac= 1.00D+00 NAtFMM=   60 NAOKFM=F Big=F
 Integral buffers will be    131072 words long.
 Raffenetti 2 integral format.
 Two-electron integral symmetry is turned on.
 Nuclear repulsion after empirical dispersion term =     1253.5446811766 Hartrees.
 One-electron integrals computed using PRISM.
 NBasis=   521 RedAO= T EigKep=  4.56D-06  NBF=   521
 NBsUse=   521 1.00D-06 EigRej= -1.00D+00 NBFU=   521
 ExpMin= 3.60D-02 ExpMax= 8.59D+03 ExpMxC= 1.30D+03 IAcc=3 IRadAn=         5 AccDes= 0.00D+00
 Harris functional with IExCor=  402 and IRadAn=       5 diagonalized for initial guess.
 HarFok:  IExCor=  402 AccDes= 0.00D+00 IRadAn=         5 IDoV= 1 UseB2=F ITyADJ=14
 ICtDFT=  3500011 ScaDFX=  1.000000  1.000000  1.000000  1.000000
 FoFCou: FMM=F IPFlag=           0 FMFlag=      100000 FMFlg1=           0
         NFxFlg=           0 DoJE=T BraDBF=F KetDBF=T FulRan=T
         wScrn=  0.000000 ICntrl=       500 IOpCl=  0 I1Cent=   200000004 NGrid=           0
         NMat0=    1 NMatS0=      1 NMatT0=    0 NMatD0=    1 NMtDS0=    0 NMtDT0=    0
 Petite list used in FoFCou.
 Requested convergence on RMS density matrix=1.00D-08 within 128 cycles.
 Requested convergence on MAX density matrix=1.00D-06.
 Requested convergence on             energy=1.00D-06.
 No special actions if energy rises.
 SCF Done:  E(RB3LYP) =  -825.821720053     A.U. after   15 cycles
            NFock= 15  Conv=0.31D-08     -V/T= 2.0042
 SCF density gives NOpUse=  1 NOpAll=  1.

 **********************************************************************

            Population analysis using the SCF density.

 **********************************************************************

 Orbital symmetries:
 BldTbl:  Degeneracy threshold= 1.00D-02
       Occupied  (A) (A) (A) (A) (A) (A) (A) (A) (A) (A) (A) (A)
                 (A) (A) (A) (A) (A) (A) (A) (A) (A) (A) (A) (A)
                 (A) (A) (A) (A) (A) (A) (A) (A) (A) (A) (A) (A)
                 (A) (A) (A) (A) (A) (A) (A) (A) (A) (A) (A) (A)
                 (A) (A) (A) (A) (A) (A) (A) (A) (A) (A) (A) (A)
                 (A) (A) (A) (A) (A) (A)
       Virtual   (A) (A) (A) (A) (A) (A) (A) (A) (A) (A) (A) (A)
                 (A) (A) (A) (A) (A) (A) (A) (A) (A) (A) (A) (A)
                 (A) (A) (A) (A) (A) (A) (A) (A) (A) (A) (A) (A)
                 (A) (A) (A) (A) (A) (A) (A) (A) (A) (A) (A) (A)
                 (A) (A) (A) (A) (A) (A) (A) (A) (A) (A) (A) (A)
                 (A) (A) (A) (A) (A) (A) (A) (A) (A) (A) (A) (A)
                 (A) (A) (A) (A) (A) (A) (A) (A) (A) (A) (A) (A)
                 (A) (A) (A) (A) (A) (A) (A) (A) (A) (A) (A) (A)
                 (A) (A) (A) (A) (A) (A) (A) (A) (A) (A) (A) (A)
                 (A) (A) (A) (A) (A) (A) (A) (A) (A) (A) (A) (A)
                 (A) (A) (A) (A) (A) (A) (A) (A) (A) (A) (A) (A)
                 (A) (A) (A) (A) (A) (A) (A) (A) (A) (A) (A) (A)
                 (A) (A) (A) (A) (A) (A) (A) (A) (A) (A) (A) (A)
                 (A) (A) (A) (A) (A) (A) (A) (A) (A) (A) (A) (A)
                 (A) (A) (A) (A) (A) (A) (A) (A) (A) (A) (A) (A)
                 (A) (A) (A) (A) (A) (A) (A) (A) (A) (A) (A) (A)
                 (A) (A) (A) (A) (A) (A) (A) (A) (A) (A) (A) (A)
                 (A) (A) (A) (A) (A) (A) (A) (A) (A) (A) (A) (A)
                 (A) (A) (A) (A) (A) (A) (A) (A) (A) (A) (A) (A)
                 (A) (A) (A) (A) (A) (A) (A) (A) (A) (A) (A) (A)
                 (A) (A) (A) (A) (A) (A) (A) (A) (A) (A) (A) (A)
                 (A) (A) (A) (A) (A) (A) (A) (A) (A) (A) (A) (A)
                 (A) (A) (A) (A) (A) (A) (A) (A) (A) (A) (A) (A)
                 (A) (A) (A) (A) (A) (A) (A) (A) (A) (A) (A) (A)
                 (A) (A) (A) (A) (A) (A) (A) (A) (A) (A) (A) (A)
                 (A) (A) (A) (A) (A) (A) (A) (A) (A) (A) (A) (A)
                 (A) (A) (A) (A) (A) (A) (A) (A) (A) (A) (A) (A)
                 (A) (A) (A) (A) (A) (A) (A) (A) (A) (A) (A) (A)
                 (A) (A) (A) (A) (A) (A) (A) (A) (A) (A) (A) (A)
                 (A) (A) (A) (A) (A) (A) (A) (A) (A) (A) (A) (A)
                 (A) (A) (A) (A) (A) (A) (A) (A) (A) (A) (A) (A)
                 (A) (A) (A) (A) (A) (A) (A) (A) (A) (A) (A) (A)
                 (A) (A) (A) (A) (A) (A) (A) (A) (A) (A) (A) (A)
                 (A) (A) (A) (A) (A) (A) (A) (A) (A) (A) (A) (A)
                 (A) (A) (A) (A) (A) (A) (A) (A) (A) (A) (A) (A)
                 (A) (A) (A) (A) (A) (A) (A) (A) (A) (A) (A) (A)
                 (A) (A) (A) (A) (A) (A) (A) (A) (A) (A) (A) (A)
                 (A) (A) (A) (A) (A) (A) (A) (A) (A) (A) (A)
 The electronic state is 1-A.
 Alpha  occ. eigenvalues --  -19.15962 -19.15249 -19.12409 -19.10103 -14.31454
 Alpha  occ. eigenvalues --  -10.31317 -10.30351 -10.22034 -10.20840 -10.20815
 Alpha  occ. eigenvalues --  -10.20193 -10.19120 -10.19080 -10.18504 -10.18009
 Alpha  occ. eigenvalues --  -10.17899 -10.17488  -1.11043  -1.10235  -1.02652
 Alpha  occ. eigenvalues --   -0.99632  -0.91416  -0.83477  -0.82463  -0.75350
 Alpha  occ. eigenvalues --   -0.71127  -0.70503  -0.69656  -0.68260  -0.67056
 Alpha  occ. eigenvalues --   -0.62163  -0.59263  -0.56448  -0.54312  -0.51280
 Alpha  occ. eigenvalues --   -0.50130  -0.49645  -0.48589  -0.47926  -0.47312
 Alpha  occ. eigenvalues --   -0.46219  -0.45648  -0.45087  -0.44076  -0.43635
 Alpha  occ. eigenvalues --   -0.43364  -0.41816  -0.41645  -0.41424  -0.40552
 Alpha  occ. eigenvalues --   -0.39813  -0.39389  -0.39092  -0.38419  -0.37051
 Alpha  occ. eigenvalues --   -0.36912  -0.36708  -0.34616  -0.33657  -0.31499
 Alpha  occ. eigenvalues --   -0.30147  -0.29229  -0.28864  -0.27918  -0.27244
 Alpha  occ. eigenvalues --   -0.22867
 Alpha virt. eigenvalues --   -0.07005  -0.06517  -0.00967  -0.00652   0.00288
 Alpha virt. eigenvalues --    0.01166   0.01520   0.01759   0.02319   0.02748
 Alpha virt. eigenvalues --    0.03026   0.03404   0.03697   0.04361   0.04553
 Alpha virt. eigenvalues --    0.04947   0.05341   0.05423   0.06035   0.06281
 Alpha virt. eigenvalues --    0.06618   0.06838   0.07336   0.07595   0.07851
 Alpha virt. eigenvalues --    0.08172   0.08929   0.09011   0.09290   0.09762
 Alpha virt. eigenvalues --    0.10465   0.10705   0.10997   0.11180   0.11338
 Alpha virt. eigenvalues --    0.11757   0.12096   0.12273   0.12459   0.12620
 Alpha virt. eigenvalues --    0.12867   0.13249   0.13368   0.13398   0.13638
 Alpha virt. eigenvalues --    0.13873   0.14367   0.14378   0.14747   0.15098
 Alpha virt. eigenvalues --    0.15236   0.15634   0.15755   0.15918   0.16263
 Alpha virt. eigenvalues --    0.16445   0.16981   0.17192   0.17355   0.17584
 Alpha virt. eigenvalues --    0.17788   0.18208   0.18410   0.18502   0.19148
 Alpha virt. eigenvalues --    0.19453   0.19676   0.19982   0.20228   0.20713
 Alpha virt. eigenvalues --    0.21062   0.21213   0.21536   0.21721   0.22011
 Alpha virt. eigenvalues --    0.22639   0.23255   0.23510   0.23596   0.23733
 Alpha virt. eigenvalues --    0.24266   0.24944   0.25557   0.26083   0.26155
 Alpha virt. eigenvalues --    0.26404   0.26728   0.27323   0.27844   0.28154
 Alpha virt. eigenvalues --    0.28491   0.28925   0.29350   0.29853   0.30142
 Alpha virt. eigenvalues --    0.30771   0.31197   0.31474   0.31501   0.32346
 Alpha virt. eigenvalues --    0.32595   0.33013   0.33601   0.34154   0.34710
 Alpha virt. eigenvalues --    0.34771   0.35085   0.35955   0.36290   0.36367
 Alpha virt. eigenvalues --    0.36903   0.37603   0.37935   0.39034   0.39516
 Alpha virt. eigenvalues --    0.39734   0.40436   0.41344   0.41816   0.41922
 Alpha virt. eigenvalues --    0.42180   0.43545   0.44260   0.44627   0.46294
 Alpha virt. eigenvalues --    0.46639   0.47045   0.48244   0.48453   0.49641
 Alpha virt. eigenvalues --    0.51047   0.51789   0.52476   0.52870   0.53426
 Alpha virt. eigenvalues --    0.54064   0.54390   0.55786   0.56143   0.57168
 Alpha virt. eigenvalues --    0.57509   0.57983   0.58848   0.60403   0.60954
 Alpha virt. eigenvalues --    0.61386   0.61873   0.62398   0.63234   0.63795
 Alpha virt. eigenvalues --    0.63873   0.64286   0.65300   0.65830   0.66340
 Alpha virt. eigenvalues --    0.66889   0.67614   0.68209   0.68586   0.69126
 Alpha virt. eigenvalues --    0.69467   0.70112   0.71231   0.71907   0.72333
 Alpha virt. eigenvalues --    0.73070   0.73560   0.74206   0.74838   0.75640
 Alpha virt. eigenvalues --    0.75828   0.76047   0.77505   0.77597   0.78069
 Alpha virt. eigenvalues --    0.79073   0.80210   0.80609   0.81056   0.82197
 Alpha virt. eigenvalues --    0.83251   0.84986   0.86401   0.87382   0.88169
 Alpha virt. eigenvalues --    0.89677   0.90641   0.90904   0.92945   0.93699
 Alpha virt. eigenvalues --    0.95707   0.96155   0.96456   0.96746   0.97467
 Alpha virt. eigenvalues --    0.98612   0.99744   1.01786   1.02673   1.04275
 Alpha virt. eigenvalues --    1.04813   1.05709   1.07370   1.07733   1.08180
 Alpha virt. eigenvalues --    1.10561   1.11550   1.12592   1.13541   1.15199
 Alpha virt. eigenvalues --    1.15530   1.17067   1.17885   1.19130   1.21714
 Alpha virt. eigenvalues --    1.22674   1.23398   1.25710   1.26268   1.27735
 Alpha virt. eigenvalues --    1.28110   1.30317   1.31638   1.33207   1.34619
 Alpha virt. eigenvalues --    1.34903   1.35506   1.37678   1.38470   1.39779
 Alpha virt. eigenvalues --    1.41494   1.42085   1.43708   1.45938   1.46168
 Alpha virt. eigenvalues --    1.46313   1.47223   1.47952   1.48877   1.49206
 Alpha virt. eigenvalues --    1.49300   1.50714   1.51351   1.52740   1.53670
 Alpha virt. eigenvalues --    1.54176   1.56307   1.57468   1.58922   1.59190
 Alpha virt. eigenvalues --    1.60238   1.60367   1.61253   1.62130   1.62588
 Alpha virt. eigenvalues --    1.63337   1.64020   1.65497   1.65938   1.67587
 Alpha virt. eigenvalues --    1.68058   1.68205   1.69003   1.69786   1.70356
 Alpha virt. eigenvalues --    1.70764   1.72181   1.73394   1.74198   1.75707
 Alpha virt. eigenvalues --    1.76122   1.76307   1.77040   1.78194   1.79615
 Alpha virt. eigenvalues --    1.80418   1.81928   1.82117   1.83473   1.84981
 Alpha virt. eigenvalues --    1.85271   1.86527   1.87292   1.88228   1.88632
 Alpha virt. eigenvalues --    1.90309   1.92425   1.94105   1.94640   1.97111
 Alpha virt. eigenvalues --    1.98807   1.99043   2.01347   2.02638   2.04132
 Alpha virt. eigenvalues --    2.05675   2.06125   2.08149   2.08406   2.09814
 Alpha virt. eigenvalues --    2.10367   2.12425   2.12599   2.13804   2.15139
 Alpha virt. eigenvalues --    2.18309   2.19686   2.20840   2.21201   2.22745
 Alpha virt. eigenvalues --    2.24352   2.25887   2.26200   2.28408   2.30741
 Alpha virt. eigenvalues --    2.31605   2.33092   2.37904   2.39609   2.41904
 Alpha virt. eigenvalues --    2.43673   2.45626   2.46333   2.48255   2.49527
 Alpha virt. eigenvalues --    2.50641   2.51511   2.52402   2.52756   2.53443
 Alpha virt. eigenvalues --    2.54446   2.55077   2.55344   2.56303   2.57637
 Alpha virt. eigenvalues --    2.58412   2.58756   2.60046   2.60781   2.61109
 Alpha virt. eigenvalues --    2.61891   2.63393   2.64299   2.65770   2.66692
 Alpha virt. eigenvalues --    2.69020   2.69418   2.70164   2.71350   2.72118
 Alpha virt. eigenvalues --    2.72744   2.73911   2.76178   2.76398   2.76944
 Alpha virt. eigenvalues --    2.78371   2.78653   2.79366   2.81809   2.82469
 Alpha virt. eigenvalues --    2.82870   2.85553   2.86376   2.87942   2.88946
 Alpha virt. eigenvalues --    2.90909   2.91501   2.92848   2.95310   2.95515
 Alpha virt. eigenvalues --    2.96643   2.97307   2.98106   2.99007   2.99900
 Alpha virt. eigenvalues --    3.02128   3.02836   3.03425   3.06085   3.09379
 Alpha virt. eigenvalues --    3.10675   3.10938   3.12716   3.16098   3.16775
 Alpha virt. eigenvalues --    3.19233   3.24762   3.25837   3.29505   3.35824
 Alpha virt. eigenvalues --    3.36670   3.37232   3.39216   3.50079   3.57032
 Alpha virt. eigenvalues --    3.58591   3.59147   3.61962   3.63781   3.71051
 Alpha virt. eigenvalues --    3.71414   3.71856   3.73825   3.74942   3.75862
 Alpha virt. eigenvalues --    3.77963   3.78487   3.78982   3.81388   3.84508
 Alpha virt. eigenvalues --    3.85216   3.87308   3.88308   3.88833   3.91807
 Alpha virt. eigenvalues --    4.03573   4.11870   4.15979   4.17354   4.27009
 Alpha virt. eigenvalues --    4.29969   4.31156   4.31801   4.34421   4.77850
 Alpha virt. eigenvalues --    4.84665   5.06182   5.07655   5.09830   5.12001
 Alpha virt. eigenvalues --    5.22718   5.26439   5.37227   5.48097   5.64136
 Alpha virt. eigenvalues --    5.70758   5.89102   5.94635  23.70464  23.70672
 Alpha virt. eigenvalues --   23.84599  23.86091  23.90324  23.91035  23.96085
 Alpha virt. eigenvalues --   23.96497  23.97521  24.01054  24.21148  24.26530
 Alpha virt. eigenvalues --   35.52850  49.91583  49.92701  50.04181  50.04970
          Condensed to atoms (all electrons):
               1          2          3          4          5          6
     1  C    6.515819   0.372500  -0.961901  -0.369528  -0.012316  -0.049195
     2  C    0.372500   9.507181  -0.916805  -3.090680  -0.223618  -0.495643
     3  C   -0.961901  -0.916805   7.045662   0.375821   0.052988   0.074018
     4  C   -0.369528  -3.090680   0.375821   8.963170   0.580424   0.408329
     5  O   -0.012316  -0.223618   0.052988   0.580424   8.033256  -0.207645
     6  O   -0.049195  -0.495643   0.074018   0.408329  -0.207645   8.066035
     7  H    0.406102  -0.087706  -0.001413   0.045515  -0.000232  -0.000627
     8  H    0.325484  -0.000756   0.066972  -0.041718  -0.000712   0.001932
     9  H    0.407167   0.007494  -0.001358  -0.045918   0.002357  -0.004150
    10  H   -0.005885  -0.039151   0.380267  -0.002823  -0.000372  -0.001268
    11  H    0.008891  -0.025668   0.347210   0.037324  -0.001699   0.000238
    12  H   -0.011715  -0.092661   0.007967   0.021293   0.002022   0.315685
    13  C   -0.000084  -0.003302   0.000073  -0.000288  -0.000774   0.001318
    14  C   -0.002337   0.014755   0.003041   0.006526   0.013399  -0.014006
    15  C   -0.000787   0.010218   0.001267   0.010478   0.004054  -0.009799
    16  C    0.000072   0.009546   0.008861  -0.039382   0.002720  -0.001617
    17  O   -0.000080   0.018405   0.001328  -0.046637  -0.002490   0.025396
    18  O    0.000440  -0.008665  -0.001577   0.017666  -0.001699  -0.006544
    19  C   -0.015061  -0.027433   0.015466  -0.015655  -0.008425   0.013984
    20  C    0.016477  -0.047499  -0.018790   0.057380  -0.026547   0.043733
    21  N    0.007487   0.020331  -0.004352  -0.044540   0.004290  -0.004930
    22  C    0.021010  -0.085834  -0.010272   0.144231  -0.036080  -0.008513
    23  C    0.000834   0.002716  -0.003233  -0.004170  -0.000981   0.001974
    24  H   -0.000002   0.000010   0.000005   0.000139  -0.000003  -0.000048
    25  H    0.000007  -0.000033  -0.000005   0.000044  -0.000021  -0.000001
    26  H   -0.000010  -0.000090   0.000007  -0.000230   0.000001   0.000066
    27  H   -0.000018   0.000211   0.000063  -0.000974  -0.000007   0.000469
    28  H    0.000028   0.001457  -0.000327   0.008063   0.001393  -0.005755
    29  H   -0.007939  -0.002939   0.007337  -0.014090   0.050061  -0.023187
    30  H    0.000514  -0.001365  -0.001818   0.009733  -0.001939   0.000624
    31  H    0.000401   0.000256   0.000020  -0.004728   0.000196   0.002157
    32  H    0.000330   0.012590  -0.000643  -0.005603  -0.001593  -0.006935
    33  H   -0.041080   0.019276   0.040300  -0.033534   0.006777  -0.004377
    34  H    0.015452   0.101924  -0.015150  -0.119611   0.022135  -0.013928
    35  H    0.011023  -0.001634  -0.026235   0.018310  -0.003701   0.000747
    36  H   -0.000474   0.000513   0.000199  -0.001185   0.000040   0.000006
    37  H   -0.000523  -0.002183   0.000576   0.003746  -0.000085  -0.000439
    38  H    0.000582  -0.000939  -0.000695   0.000836  -0.000030   0.000168
               7          8          9         10         11         12
     1  C    0.406102   0.325484   0.407167  -0.005885   0.008891  -0.011715
     2  C   -0.087706  -0.000756   0.007494  -0.039151  -0.025668  -0.092661
     3  C   -0.001413   0.066972  -0.001358   0.380267   0.347210   0.007967
     4  C    0.045515  -0.041718  -0.045918  -0.002823   0.037324   0.021293
     5  O   -0.000232  -0.000712   0.002357  -0.000372  -0.001699   0.002022
     6  O   -0.000627   0.001932  -0.004150  -0.001268   0.000238   0.315685
     7  H    0.571710  -0.054684  -0.026593  -0.007767   0.001237   0.001123
     8  H   -0.054684   0.548038  -0.011045   0.003121  -0.001574   0.000596
     9  H   -0.026593  -0.011045   0.503555   0.002165  -0.001702  -0.009093
    10  H   -0.007767   0.003121   0.002165   0.541509  -0.019866   0.000474
    11  H    0.001237  -0.001574  -0.001702  -0.019866   0.446599  -0.000676
    12  H    0.001123   0.000596  -0.009093   0.000474  -0.000676   0.370102
    13  C    0.000006   0.000013  -0.000066  -0.000010   0.000032   0.006187
    14  C   -0.000044  -0.000151   0.000650  -0.000043   0.000275  -0.003363
    15  C   -0.000007   0.000011   0.000385   0.000005  -0.000001  -0.022558
    16  C   -0.000252  -0.000395   0.000185   0.000218   0.000467   0.023956
    17  O    0.000062  -0.000093   0.000189  -0.000024   0.000243   0.011891
    18  O   -0.000001   0.000076  -0.000181   0.000009  -0.000058   0.001312
    19  C    0.000291  -0.001491   0.000199  -0.000165  -0.000707   0.006996
    20  C   -0.000283   0.004514   0.000216  -0.000750  -0.000381  -0.003371
    21  N   -0.000887  -0.003708   0.000737   0.000495  -0.000166   0.000226
    22  C    0.006486   0.001679  -0.002889  -0.006447   0.004798  -0.007484
    23  C    0.000172  -0.001934   0.000313  -0.000086  -0.000218   0.000459
    24  H    0.000000   0.000000   0.000000   0.000000  -0.000000  -0.000261
    25  H    0.000001  -0.000000   0.000001  -0.000001   0.000002  -0.000030
    26  H   -0.000001  -0.000000  -0.000003   0.000002  -0.000006   0.000346
    27  H   -0.000000  -0.000001   0.000002   0.000000   0.000002   0.001237
    28  H   -0.000006   0.000005   0.000146  -0.000013   0.000032  -0.007939
    29  H   -0.000196  -0.001305   0.000568   0.000842  -0.001508  -0.009850
    30  H    0.000097   0.000166   0.000022  -0.000287   0.000305  -0.001045
    31  H   -0.000077  -0.000138   0.000192   0.000048  -0.000100   0.000354
    32  H    0.000449   0.000503  -0.001122  -0.000201   0.000251   0.001163
    33  H   -0.002871  -0.004679  -0.000185   0.002771  -0.001619   0.006479
    34  H   -0.005876   0.002467   0.000806   0.007486  -0.002349  -0.002137
    35  H    0.001088  -0.001753   0.000471  -0.002006   0.000761  -0.001019
    36  H    0.000025  -0.000029   0.000006   0.000009  -0.000004  -0.000034
    37  H    0.000151   0.000197  -0.000110  -0.000111   0.000111  -0.000391
    38  H   -0.000001  -0.000227  -0.000109   0.000072  -0.000096   0.000211
              13         14         15         16         17         18
     1  C   -0.000084  -0.002337  -0.000787   0.000072  -0.000080   0.000440
     2  C   -0.003302   0.014755   0.010218   0.009546   0.018405  -0.008665
     3  C    0.000073   0.003041   0.001267   0.008861   0.001328  -0.001577
     4  C   -0.000288   0.006526   0.010478  -0.039382  -0.046637   0.017666
     5  O   -0.000774   0.013399   0.004054   0.002720  -0.002490  -0.001699
     6  O    0.001318  -0.014006  -0.009799  -0.001617   0.025396  -0.006544
     7  H    0.000006  -0.000044  -0.000007  -0.000252   0.000062  -0.000001
     8  H    0.000013  -0.000151   0.000011  -0.000395  -0.000093   0.000076
     9  H   -0.000066   0.000650   0.000385   0.000185   0.000189  -0.000181
    10  H   -0.000010  -0.000043   0.000005   0.000218  -0.000024   0.000009
    11  H    0.000032   0.000275  -0.000001   0.000467   0.000243  -0.000058
    12  H    0.006187  -0.003363  -0.022558   0.023956   0.011891   0.001312
    13  C    6.105617   0.135255  -0.550440  -0.025422  -0.027285  -0.077227
    14  C    0.135255   8.715588  -0.586139  -2.437830  -0.082004  -0.350971
    15  C   -0.550440  -0.586139   7.205025  -0.461087   0.197580   0.086127
    16  C   -0.025422  -2.437830  -0.461087   9.020937   0.259639   0.250158
    17  O   -0.027285  -0.082004   0.197580   0.259639   8.058739  -0.205932
    18  O   -0.077227  -0.350971   0.086127   0.250158  -0.205932   8.260525
    19  C   -0.160609   0.213955   0.131170  -0.353724   0.158020   0.195779
    20  C    0.082052  -0.249861  -0.139709   0.166133  -0.115853  -0.062785
    21  N   -0.004619   0.009759  -0.000046   0.009407   0.002264  -0.007426
    22  C    0.000523   0.012434   0.005740  -0.052725  -0.004731   0.014132
    23  C   -0.000024  -0.005838  -0.002401  -0.009209  -0.000520  -0.003990
    24  H    0.393357  -0.082534   0.029483  -0.021767   0.001082   0.004457
    25  H    0.387392   0.009719  -0.033691   0.001363  -0.003673  -0.005515
    26  H    0.376385   0.011887  -0.012370  -0.004440  -0.000751  -0.003820
    27  H   -0.043679  -0.086040   0.406107   0.084026   0.000792  -0.004783
    28  H    0.010484  -0.075934   0.396350   0.026352  -0.002515   0.001863
    29  H   -0.017163   0.009357   0.026016  -0.069577  -0.015529   0.002725
    30  H    0.003642   0.014356  -0.004744  -0.058536   0.008404  -0.091847
    31  H   -0.005636   0.013165   0.003540  -0.008899   0.005054  -0.002025
    32  H    0.002677  -0.023402  -0.002313  -0.001198  -0.005959   0.000409
    33  H   -0.000322   0.000656  -0.001804   0.007951   0.000695  -0.003213
    34  H   -0.003153  -0.013894   0.000733   0.043102   0.003071   0.007783
    35  H    0.000006   0.000881   0.000231  -0.004129  -0.000425   0.000287
    36  H   -0.000091   0.000046   0.000196   0.000519   0.000021   0.000740
    37  H    0.000123   0.000481   0.000063  -0.002739  -0.000091   0.000514
    38  H    0.000055  -0.000240  -0.000152  -0.000593  -0.000008  -0.000116
              19         20         21         22         23         24
     1  C   -0.015061   0.016477   0.007487   0.021010   0.000834  -0.000002
     2  C   -0.027433  -0.047499   0.020331  -0.085834   0.002716   0.000010
     3  C    0.015466  -0.018790  -0.004352  -0.010272  -0.003233   0.000005
     4  C   -0.015655   0.057380  -0.044540   0.144231  -0.004170   0.000139
     5  O   -0.008425  -0.026547   0.004290  -0.036080  -0.000981  -0.000003
     6  O    0.013984   0.043733  -0.004930  -0.008513   0.001974  -0.000048
     7  H    0.000291  -0.000283  -0.000887   0.006486   0.000172   0.000000
     8  H   -0.001491   0.004514  -0.003708   0.001679  -0.001934   0.000000
     9  H    0.000199   0.000216   0.000737  -0.002889   0.000313   0.000000
    10  H   -0.000165  -0.000750   0.000495  -0.006447  -0.000086   0.000000
    11  H   -0.000707  -0.000381  -0.000166   0.004798  -0.000218  -0.000000
    12  H    0.006996  -0.003371   0.000226  -0.007484   0.000459  -0.000261
    13  C   -0.160609   0.082052  -0.004619   0.000523  -0.000024   0.393357
    14  C    0.213955  -0.249861   0.009759   0.012434  -0.005838  -0.082534
    15  C    0.131170  -0.139709  -0.000046   0.005740  -0.002401   0.029483
    16  C   -0.353724   0.166133   0.009407  -0.052725  -0.009209  -0.021767
    17  O    0.158020  -0.115853   0.002264  -0.004731  -0.000520   0.001082
    18  O    0.195779  -0.062785  -0.007426   0.014132  -0.003990   0.004457
    19  C    6.516569  -0.912994  -0.013336   0.076631  -0.038070   0.002005
    20  C   -0.912994   7.078421   0.068367  -0.284090  -0.113957   0.000123
    21  N   -0.013336   0.068367   6.876922  -0.022364   0.333803  -0.000119
    22  C    0.076631  -0.284090  -0.022364   6.272190  -0.275051   0.000122
    23  C   -0.038070  -0.113957   0.333803  -0.275051   5.253442  -0.000054
    24  H    0.002005   0.000123  -0.000119   0.000122  -0.000054   0.571700
    25  H   -0.005491   0.010649  -0.000136  -0.000201   0.000037  -0.017829
    26  H    0.000988  -0.006193   0.000054   0.000087   0.000053  -0.041120
    27  H    0.000296  -0.002392   0.000088  -0.000124  -0.000003   0.000243
    28  H   -0.001528   0.004410  -0.000180   0.000543  -0.000031   0.002766
    29  H    0.424776  -0.116106   0.006202   0.034479   0.001822   0.000094
    30  H    0.449810  -0.056105   0.020978   0.020531   0.003703   0.000440
    31  H    0.007161   0.364698  -0.054895  -0.002226   0.005657  -0.000121
    32  H   -0.107791   0.404370  -0.070227   0.027589  -0.019945   0.000174
    33  H    0.043726  -0.136947   0.007185   0.299776   0.006127  -0.000037
    34  H   -0.103216   0.126399   0.001489  -0.019716   0.004906  -0.000035
    35  H    0.003016   0.032498  -0.055640   0.426017   0.000631  -0.000003
    36  H   -0.005396   0.013680  -0.052638   0.009321   0.402992   0.000005
    37  H    0.002948  -0.012328  -0.075418   0.021689   0.372922   0.000012
    38  H   -0.000916   0.014484  -0.057988   0.020703   0.394412  -0.000000
              25         26         27         28         29         30
     1  C    0.000007  -0.000010  -0.000018   0.000028  -0.007939   0.000514
     2  C   -0.000033  -0.000090   0.000211   0.001457  -0.002939  -0.001365
     3  C   -0.000005   0.000007   0.000063  -0.000327   0.007337  -0.001818
     4  C    0.000044  -0.000230  -0.000974   0.008063  -0.014090   0.009733
     5  O   -0.000021   0.000001  -0.000007   0.001393   0.050061  -0.001939
     6  O   -0.000001   0.000066   0.000469  -0.005755  -0.023187   0.000624
     7  H    0.000001  -0.000001  -0.000000  -0.000006  -0.000196   0.000097
     8  H   -0.000000  -0.000000  -0.000001   0.000005  -0.001305   0.000166
     9  H    0.000001  -0.000003   0.000002   0.000146   0.000568   0.000022
    10  H   -0.000001   0.000002   0.000000  -0.000013   0.000842  -0.000287
    11  H    0.000002  -0.000006   0.000002   0.000032  -0.001508   0.000305
    12  H   -0.000030   0.000346   0.001237  -0.007939  -0.009850  -0.001045
    13  C    0.387392   0.376385  -0.043679   0.010484  -0.017163   0.003642
    14  C    0.009719   0.011887  -0.086040  -0.075934   0.009357   0.014356
    15  C   -0.033691  -0.012370   0.406107   0.396350   0.026016  -0.004744
    16  C    0.001363  -0.004440   0.084026   0.026352  -0.069577  -0.058536
    17  O   -0.003673  -0.000751   0.000792  -0.002515  -0.015529   0.008404
    18  O   -0.005515  -0.003820  -0.004783   0.001863   0.002725  -0.091847
    19  C   -0.005491   0.000988   0.000296  -0.001528   0.424776   0.449810
    20  C    0.010649  -0.006193  -0.002392   0.004410  -0.116106  -0.056105
    21  N   -0.000136   0.000054   0.000088  -0.000180   0.006202   0.020978
    22  C   -0.000201   0.000087  -0.000124   0.000543   0.034479   0.020531
    23  C    0.000037   0.000053  -0.000003  -0.000031   0.001822   0.003703
    24  H   -0.017829  -0.041120   0.000243   0.002766   0.000094   0.000440
    25  H    0.540976  -0.046447   0.001174  -0.001976  -0.000974   0.000061
    26  H   -0.046447   0.548311   0.001261  -0.002621   0.002406  -0.001458
    27  H    0.001174   0.001261   0.529957  -0.038150  -0.000736  -0.000380
    28  H   -0.001976  -0.002621  -0.038150   0.505444   0.001479   0.001015
    29  H   -0.000974   0.002406  -0.000736   0.001479   0.613605  -0.070739
    30  H    0.000061  -0.001458  -0.000380   0.001015  -0.070739   0.606321
    31  H   -0.001759   0.000289   0.000079  -0.000097   0.013313  -0.018377
    32  H    0.000241  -0.000271  -0.000168   0.000115  -0.034343   0.021900
    33  H    0.000027   0.000067   0.000038  -0.000313   0.002378   0.001191
    34  H   -0.000003  -0.000121   0.000110  -0.000442  -0.027038  -0.036454
    35  H   -0.000002   0.000001  -0.000001   0.000031   0.002759   0.000849
    36  H    0.000052  -0.000014   0.000002  -0.000007   0.000622  -0.001682
    37  H    0.000025  -0.000018  -0.000009   0.000028  -0.001398   0.003321
    38  H    0.000002   0.000000  -0.000002   0.000005   0.000548  -0.000168
              31         32         33         34         35         36
     1  C    0.000401   0.000330  -0.041080   0.015452   0.011023  -0.000474
     2  C    0.000256   0.012590   0.019276   0.101924  -0.001634   0.000513
     3  C    0.000020  -0.000643   0.040300  -0.015150  -0.026235   0.000199
     4  C   -0.004728  -0.005603  -0.033534  -0.119611   0.018310  -0.001185
     5  O    0.000196  -0.001593   0.006777   0.022135  -0.003701   0.000040
     6  O    0.002157  -0.006935  -0.004377  -0.013928   0.000747   0.000006
     7  H   -0.000077   0.000449  -0.002871  -0.005876   0.001088   0.000025
     8  H   -0.000138   0.000503  -0.004679   0.002467  -0.001753  -0.000029
     9  H    0.000192  -0.001122  -0.000185   0.000806   0.000471   0.000006
    10  H    0.000048  -0.000201   0.002771   0.007486  -0.002006   0.000009
    11  H   -0.000100   0.000251  -0.001619  -0.002349   0.000761  -0.000004
    12  H    0.000354   0.001163   0.006479  -0.002137  -0.001019  -0.000034
    13  C   -0.005636   0.002677  -0.000322  -0.003153   0.000006  -0.000091
    14  C    0.013165  -0.023402   0.000656  -0.013894   0.000881   0.000046
    15  C    0.003540  -0.002313  -0.001804   0.000733   0.000231   0.000196
    16  C   -0.008899  -0.001198   0.007951   0.043102  -0.004129   0.000519
    17  O    0.005054  -0.005959   0.000695   0.003071  -0.000425   0.000021
    18  O   -0.002025   0.000409  -0.003213   0.007783   0.000287   0.000740
    19  C    0.007161  -0.107791   0.043726  -0.103216   0.003016  -0.005396
    20  C    0.364698   0.404370  -0.136947   0.126399   0.032498   0.013680
    21  N   -0.054895  -0.070227   0.007185   0.001489  -0.055640  -0.052638
    22  C   -0.002226   0.027589   0.299776  -0.019716   0.426017   0.009321
    23  C    0.005657  -0.019945   0.006127   0.004906   0.000631   0.402992
    24  H   -0.000121   0.000174  -0.000037  -0.000035  -0.000003   0.000005
    25  H   -0.001759   0.000241   0.000027  -0.000003  -0.000002   0.000052
    26  H    0.000289  -0.000271   0.000067  -0.000121   0.000001  -0.000014
    27  H    0.000079  -0.000168   0.000038   0.000110  -0.000001   0.000002
    28  H   -0.000097   0.000115  -0.000313  -0.000442   0.000031  -0.000007
    29  H    0.013313  -0.034343   0.002378  -0.027038   0.002759   0.000622
    30  H   -0.018377   0.021900   0.001191  -0.036454   0.000849  -0.001682
    31  H    0.589515  -0.089487  -0.013139   0.014688   0.001807  -0.003968
    32  H   -0.089487   0.669884   0.044756   0.002821  -0.010906   0.003616
    33  H   -0.013139   0.044756   0.695371  -0.041270  -0.060368  -0.000795
    34  H    0.014688   0.002821  -0.041270   0.930363  -0.073069  -0.001767
    35  H    0.001807  -0.010906  -0.060368  -0.073069   0.578575  -0.000868
    36  H   -0.003968   0.003616  -0.000795  -0.001767  -0.000868   0.570368
    37  H   -0.010733   0.031983   0.023051  -0.010169   0.000635  -0.040281
    38  H    0.005097  -0.007179  -0.005190  -0.000500   0.001792  -0.030817
              37         38
     1  C   -0.000523   0.000582
     2  C   -0.002183  -0.000939
     3  C    0.000576  -0.000695
     4  C    0.003746   0.000836
     5  O   -0.000085  -0.000030
     6  O   -0.000439   0.000168
     7  H    0.000151  -0.000001
     8  H    0.000197  -0.000227
     9  H   -0.000110  -0.000109
    10  H   -0.000111   0.000072
    11  H    0.000111  -0.000096
    12  H   -0.000391   0.000211
    13  C    0.000123   0.000055
    14  C    0.000481  -0.000240
    15  C    0.000063  -0.000152
    16  C   -0.002739  -0.000593
    17  O   -0.000091  -0.000008
    18  O    0.000514  -0.000116
    19  C    0.002948  -0.000916
    20  C   -0.012328   0.014484
    21  N   -0.075418  -0.057988
    22  C    0.021689   0.020703
    23  C    0.372922   0.394412
    24  H    0.000012  -0.000000
    25  H    0.000025   0.000002
    26  H   -0.000018   0.000000
    27  H   -0.000009  -0.000002
    28  H    0.000028   0.000005
    29  H   -0.001398   0.000548
    30  H    0.003321  -0.000168
    31  H   -0.010733   0.005097
    32  H    0.031983  -0.007179
    33  H    0.023051  -0.005190
    34  H   -0.010169  -0.000500
    35  H    0.000635   0.001792
    36  H   -0.040281  -0.030817
    37  H    0.615308  -0.045670
    38  H   -0.045670   0.565592
 Mulliken charges:
               1
     1  C   -0.631686
     2  C    1.055218
     3  C   -0.464872
     4  C   -0.827734
     5  O   -0.245143
     6  O   -0.098273
     7  H    0.155007
     8  H    0.170620
     9  H    0.176700
    10  H    0.147783
    11  H    0.209622
    12  H    0.393551
    13  C   -0.585002
    14  C    0.828445
    15  C   -0.686732
    16  C   -0.362089
    17  O   -0.238272
    18  O   -0.006627
    19  C   -0.491775
    20  C   -0.181664
    21  N    0.103528
    22  C   -0.601967
    23  C   -0.307263
    24  H    0.157715
    25  H    0.166016
    26  H    0.177774
    27  H    0.151312
    28  H    0.175826
    29  H    0.213229
    30  H    0.178958
    31  H    0.188718
    32  H    0.163465
    33  H    0.143144
    34  H    0.204163
    35  H    0.159343
    36  H    0.137073
    37  H    0.124813
    38  H    0.147076
 Sum of Mulliken charges =  -0.00000
 Mulliken charges with hydrogens summed into heavy atoms:
               1
     1  C   -0.129359
     2  C    1.055218
     3  C   -0.107467
     4  C   -0.827734
     5  O   -0.245143
     6  O    0.295278
    13  C   -0.083497
    14  C    0.828445
    15  C   -0.359593
    16  C   -0.362089
    17  O   -0.238272
    18  O   -0.006627
    19  C   -0.099587
    20  C    0.170519
    21  N    0.103528
    22  C   -0.095316
    23  C    0.101699
 DipInt: DoE/N= T F RetVal/Mat= T F Init=T NMatP=  1 IDeriv=0 Min/MaxMlt=  0  4
 Entering OneElI...
 OneElI was handed 25769067012 working-precision words.
 Multipole integrals L=0 to 4 MinM= 0 MaxM= 0.
 Requested accuracy = 0.1000D-12
 ShPair: Thresh= 1.00D-13 NBox=     0 BxSize= 0.00D+00 RnKept= 2.12D+01
         NSMCal=                21528 NSMKep=               17894
 PrmmSu-InSpLW:  IPartL=    0 NPrtUS=    1 NPrtUL=    1 DoSpLW=F IThBeg=    0 IThEnd=    0 NThAct=    1.
 PrsmSu:  NPrtUS=   1 ThrOK=F IAlg=1 NPAlg=1 LenDen=           0 ISkipM=0 DoSpLW=F IThBeg=    0 IThEnd=    0.
 Prism:   IPart=     0 DynPar=F LinDyn=F Incr=         178.
 PRISM was handed 25767964898 working-precision words and 17894 shell-pairs
 IPart=  0 NShTot=       17894 NBatch=         143 AvBLen=       125.1
 PrsmSu-ThDecC:  IPartSL=    0    0 NPrtUSL=    1    1 IThBeg=    0 IThEnd=    0 CPU=   -1 GPU=   -1 NThAct=    1.
 PrSmSu:  NxtVal=            179.
 Electronic moments (au):
       -132.00000000         -0.04115357          0.13249903         -0.47339854
      -3888.21875225      -1620.14935776       -398.89863567          1.42343608
          0.08449511         -0.34253072       5163.94959872      -4066.08414388
        -69.44614895      -2386.92561645       5437.99369853       -148.59425573
       -742.07165127        352.55494993        750.54144246        816.28221938
    -239346.09486839     -49126.94166247      -3305.97441633       4401.38666784
       2592.95068508     -11545.28726004       3976.19345099        -31.59291225
        310.59584717     -31925.81996467     -13597.21341489      -4862.62074999
      -3123.93972843       -259.90908276       1932.50537962
 Electronic spatial extent (au):  <R**2>=           5907.2667
 DipInt: DoE/N= F T RetVal/Mat= T F Init=T NMatP=  1 IDeriv=0 Min/MaxMlt=  0  4
 Nuclear    moments (au):
        132.00000000          0.00000000          0.00000000          0.00000000
       3831.41264997       1541.86729713        318.18666514         -0.00000000
          0.00000000         -0.00000000      -5182.86501700       4064.47550661
         75.86334926       2379.01921229      -5496.00698368        159.21614242
        741.67201508       -355.83892399       -776.57248073       -823.55882811
     227052.45708014      43370.26110536       1906.28890626      -4337.48221516
      -2557.68302933      11634.22049755      -3992.92182950         25.37218431
       -297.80859925      28794.62772677      11038.04337615       3606.09045878
       3163.99072406        277.80180983      -1965.16453190
 Total      moments (au):
         -0.00000000         -0.04115357          0.13249903         -0.47339854
        -56.80610227        -78.28206062        -80.71197053          1.42343608
          0.08449511         -0.34253072        -18.91541827         -1.60863726
          6.41720032         -7.90640416        -58.01328515         10.62188669
         -0.39963619         -3.28397406        -26.03103827         -7.27660873
     -12293.63778824      -5756.68055712      -1399.68551008         63.90445269
         35.26765575         88.93323751        -16.72837852         -6.22072794
         12.78724792      -3131.19223790      -2559.17003873      -1256.53029120
         40.05099563         17.89272707        -32.65915228
 Traceless Quadrup. (au):
         15.12727554         -6.34868281         -8.77859272          1.42343608
          0.08449511         -0.34253072
 Charge=             -0.0000 electrons
 Dipole moment (field-independent basis, Debye):
    X=             -0.1046    Y=              0.3368    Z=             -1.2033  Tot=              1.2539
 Quadrupole moment (field-independent basis, Debye-Ang):
   XX=            -76.4062   YY=           -105.2921   ZZ=           -108.5604
   XY=              1.9146   XZ=              0.1136   YZ=             -0.4607
 Traceless Quadrupole moment (field-independent basis, Debye-Ang):
   XX=             20.3467   YY=             -8.5392   ZZ=            -11.8075
   XY=              1.9146   XZ=              0.1136   YZ=             -0.4607
 Octapole moment (field-independent basis, Debye-Ang**2):
  XXX=            -13.4633  YYY=             -1.1450  ZZZ=              4.5675  XYY=             -5.6275
  XXY=            -41.2916  XXZ=              7.5602  XZZ=             -0.2844  YZZ=             -2.3374
  YYZ=            -18.5279  XYZ=             -5.1792
 Hexadecapole moment (field-independent basis, Debye-Ang**3):
 XXXX=          -4630.3735 YYYY=          -2168.2419 ZZZZ=           -527.1887 XXXY=             24.0695
 XXXZ=             13.2835 YYYX=             33.4965 YYYZ=             -6.3007 ZZZX=             -2.3430
 ZZZY=              4.8163 XXYY=          -1179.3571 XXZZ=           -963.9062 YYZZ=           -473.2696
 XXYZ=             15.0851 YYXZ=              6.7393 ZZXY=            -12.3010
 N-N= 1.253544681177D+03 E-N=-4.435853961850D+03  KE= 8.223675251856D+02
 Entering OneElI...
 OneElI was handed 25769228497 working-precision words.
 Calculate electrostatic properties
    NBasis =   521  MinDer = 0  MaxDer = 0
    NGrid  =    38  NMatD  =   1
 Requested accuracy = 0.1000D-12
 ShPair: Thresh= 1.00D-13 NBox=     0 BxSize= 0.00D+00 RnKept= 2.12D+01
         NSMCal=                21528 NSMKep=               16334
 PrmmSu-InSpLW:  IPartL=    0 NPrtUS=   48 NPrtUL=    1 DoSpLW=F IThBeg=    0 IThEnd=   47 NThAct=   48.
 PrsmSu:  NPrtUS=  48 ThrOK=T IAlg=1 NPAlg=1 LenDen=           0 ISkipM=0 DoSpLW=F IThBeg=    0 IThEnd=   47.
 Prism:   IPart=     0 DynPar=F LinDyn=F Incr=         129.
 PRISM was handed   536543843 working-precision words and 16334 shell-pairs
 PRISM was handed   536543843 working-precision words and 16334 shell-pairs
 PRISM was handed   536543843 working-precision words and 16334 shell-pairs
 PRISM was handed   536543843 working-precision words and 16334 shell-pairs
 PRISM was handed   536543843 working-precision words and 16334 shell-pairs
 PRISM was handed   536543843 working-precision words and 16334 shell-pairs
 PRISM was handed   536543843 working-precision words and 16334 shell-pairs
 PRISM was handed   536543843 working-precision words and 16334 shell-pairs
 PRISM was handed   536543843 working-precision words and 16334 shell-pairs
 PRISM was handed   536543843 working-precision words and 16334 shell-pairs
 PRISM was handed   536543843 working-precision words and 16334 shell-pairs
 PRISM was handed   536543843 working-precision words and 16334 shell-pairs
 PRISM was handed   536543843 working-precision words and 16334 shell-pairs
 PRISM was handed   536543843 working-precision words and 16334 shell-pairs
 PRISM was handed   536543843 working-precision words and 16334 shell-pairs
 PRISM was handed   536543843 working-precision words and 16334 shell-pairs
 PRISM was handed   536543843 working-precision words and 16334 shell-pairs
 PRISM was handed   536543843 working-precision words and 16334 shell-pairs
 PRISM was handed   536543843 working-precision words and 16334 shell-pairs
 PRISM was handed   536543843 working-precision words and 16334 shell-pairs
 PRISM was handed   536543843 working-precision words and 16334 shell-pairs
 PRISM was handed   536543843 working-precision words and 16334 shell-pairs
 PRISM was handed   536543843 working-precision words and 16334 shell-pairs
 PRISM was handed   536543843 working-precision words and 16334 shell-pairs
 PRISM was handed   536543843 working-precision words and 16334 shell-pairs
 PRISM was handed   536543843 working-precision words and 16334 shell-pairs
 PRISM was handed   536543843 working-precision words and 16334 shell-pairs
 PRISM was handed   536543843 working-precision words and 16334 shell-pairs
 PRISM was handed   536543843 working-precision words and 16334 shell-pairs
 PRISM was handed   536543843 working-precision words and 16334 shell-pairs
 PRISM was handed   536543843 working-precision words and 16334 shell-pairs
 PRISM was handed   536543843 working-precision words and 16334 shell-pairs
 PRISM was handed   536543843 working-precision words and 16334 shell-pairs
[...]
 **** Fit       0.018587
 **** Fit       0.016572
 **** Fit       0.013342
 **** Fit       0.010027
 **** Fit       0.007257
 **** Fit       0.005143
 **** Fit       0.003570
 **** Fit       0.002389
 **** Fit       0.002415
 **** Fit       0.002951
 **** Fit       0.003601
 **** Fit       0.004356
 **** Fit       0.005168
 **** Fit       0.005960
 **** Fit       0.006667
 **** Fit       0.007296
 **** Fit       0.007956
 **** Fit       0.008826
 **** Fit       0.010068
 **** Fit       0.011707
 **** Fit       0.013470
 **** Fit       0.014710
 **** Fit       0.014713
 **** Fit       0.013291
 **** Fit       0.010971
 **** Fit       0.008494
 **** Fit       0.006325
 **** Fit       0.004594
 **** Fit       0.003254
 **** Fit       0.002213
 **** Fit       0.002571
 **** Fit       0.003047
 **** Fit       0.003585
 **** Fit       0.004157
 **** Fit       0.004724
 **** Fit       0.005258
 **** Fit       0.005766
 **** Fit       0.006309
 **** Fit       0.006982
 **** Fit       0.007863
 **** Fit       0.008941
 **** Fit       0.010026
 **** Fit       0.010744
 **** Fit       0.010709
 **** Fit       0.009818
 **** Fit       0.008339
 **** Fit       0.006681
 **** Fit       0.005141
 **** Fit       0.003837
 **** Fit       0.002773
 **** Fit       0.001907
 **** Fit       0.002573
 **** Fit       0.002944
 **** Fit       0.003334
 **** Fit       0.003723
 **** Fit       0.004097
 **** Fit       0.004462
 **** Fit       0.004850
 **** Fit       0.005304
 **** Fit       0.005857
 **** Fit       0.006489
 **** Fit       0.007087
 **** Fit       0.007455
 **** Fit       0.007406
 **** Fit       0.006883
 **** Fit       0.006003
 **** Fit       0.004966
 **** Fit       0.003941
 **** Fit       0.003014
 **** Fit       0.002211
 **** Fit       0.002687
 **** Fit       0.002937
 **** Fit       0.003177
 **** Fit       0.003410
 **** Fit       0.003649
 **** Fit       0.003915
 **** Fit       0.004222
 **** Fit       0.004553
 **** Fit       0.004850
 **** Fit       0.005018
 **** Fit       0.004967
 **** Fit       0.004665
 **** Fit       0.004155
 **** Fit       0.003527
 **** Fit       0.002866
 **** Fit       0.002230
 **** Fit       0.002842
 **** Fit       0.002983
 **** Fit       0.003129
 **** Fit       0.003253
 **** Fit       0.003312
 **** Fit       0.003260
 **** Fit       0.003079
 **** Fit       0.002781
 **** Fit       0.002399
 **** Fit       0.001977
 **** Fit       0.002129
 **** Fit       0.002157
 **** Fit       0.002155
 **** Fit       0.002101
 **** Fit       0.001981
 **** Fit       0.001795
 **** Fit       0.001555
 **** Fit       0.002607
 **** Fit       0.002749
 **** Fit       0.002814
 **** Fit       0.002752
 **** Fit       0.003124
 **** Fit       0.003438
 **** Fit       0.003662
 **** Fit       0.003784
 **** Fit       0.003809
 **** Fit       0.003759
 **** Fit       0.003501
 **** Fit       0.003295
 **** Fit       0.003024
 **** Fit       0.002678
 **** Fit       0.002263
 **** Fit       0.001797
 **** Fit       0.002899
 **** Fit       0.003432
 **** Fit       0.003951
 **** Fit       0.004398
 **** Fit       0.004725
 **** Fit       0.004913
 **** Fit       0.004982
 **** Fit       0.004971
 **** Fit       0.004914
 **** Fit       0.004817
 **** Fit       0.004660
 **** Fit       0.004404
 **** Fit       0.004022
 **** Fit       0.003511
 **** Fit       0.002906
 **** Fit       0.002257
 **** Fit       0.001617
 **** Fit       0.002808
 **** Fit       0.003445
 **** Fit       0.004139
 **** Fit       0.004829
 **** Fit       0.005433
 **** Fit       0.005879
 **** Fit       0.006144
 **** Fit       0.006265
 **** Fit       0.006313
 **** Fit       0.006342
 **** Fit       0.006358
 **** Fit       0.006309
 **** Fit       0.006114
 **** Fit       0.005704
 **** Fit       0.005070
 **** Fit       0.004269
 **** Fit       0.003395
 **** Fit       0.002538
 **** Fit       0.001756
 **** Fit       0.002526
 **** Fit       0.003173
 **** Fit       0.003939
 **** Fit       0.004792
 **** Fit       0.005657
 **** Fit       0.006423
 **** Fit       0.006994
 **** Fit       0.007343
 **** Fit       0.007532
 **** Fit       0.007671
 **** Fit       0.007844
 **** Fit       0.008051
 **** Fit       0.008198
 **** Fit       0.008130
 **** Fit       0.007714
 **** Fit       0.006924
 **** Fit       0.005861
 **** Fit       0.004689
 **** Fit       0.003555
 **** Fit       0.002544
 **** Fit       0.001685
 **** Fit       0.002725
 **** Fit       0.003441
 **** Fit       0.004304
 **** Fit       0.005282
 **** Fit       0.006289
 **** Fit       0.007194
 **** Fit       0.007878
 **** Fit       0.008316
 **** Fit       0.008596
 **** Fit       0.008869
 **** Fit       0.009250
 **** Fit       0.009734
 **** Fit       0.010173
 **** Fit       0.010311
 **** Fit       0.009918
 **** Fit       0.008945
 **** Fit       0.007560
 **** Fit       0.006032
 **** Fit       0.004580
 **** Fit       0.003320
 **** Fit       0.002276
 **** Fit       0.002828
 **** Fit       0.003572
 **** Fit       0.004476
 **** Fit       0.005511
 **** Fit       0.006587
 **** Fit       0.007569
 **** Fit       0.008334
 **** Fit       0.008858
 **** Fit       0.009253
 **** Fit       0.009697
 **** Fit       0.010327
 **** Fit       0.011135
 **** Fit       0.011920
 **** Fit       0.012314
 **** Fit       0.011976
 **** Fit       0.010825
 **** Fit       0.009114
 **** Fit       0.007231
 **** Fit       0.005477
 **** Fit       0.003988
 **** Fit       0.002782
 **** Fit       0.002828
 **** Fit       0.003550
 **** Fit       0.004428
 **** Fit       0.005433
 **** Fit       0.006487
 **** Fit       0.007464
 **** Fit       0.008258
 **** Fit       0.008855
 **** Fit       0.009369
 **** Fit       0.009984
 **** Fit       0.010839
 **** Fit       0.011926
 **** Fit       0.013004
 **** Fit       0.013627
 **** Fit       0.013358
 **** Fit       0.012096
 **** Fit       0.010161
 **** Fit       0.008037
 **** Fit       0.006081
 **** Fit       0.004445
 **** Fit       0.003137
 **** Fit       0.002105
 **** Fit       0.002733
 **** Fit       0.003392
 **** Fit       0.004184
 **** Fit       0.005087
 **** Fit       0.006036
 **** Fit       0.006934
 **** Fit       0.007701
 **** Fit       0.008335
 **** Fit       0.008937
 **** Fit       0.009667
 **** Fit       0.010648
 **** Fit       0.011860
 **** Fit       0.013059
 **** Fit       0.013783
 **** Fit       0.013577
 **** Fit       0.012334
 **** Fit       0.010387
 **** Fit       0.008241
 **** Fit       0.006265
 **** Fit       0.004613
 **** Fit       0.003292
 **** Fit       0.002248
 **** Fit       0.003137
 **** Fit       0.003809
 **** Fit       0.004568
 **** Fit       0.005366
 **** Fit       0.006136
 **** Fit       0.006829
 **** Fit       0.007449
 **** Fit       0.008075
 **** Fit       0.008825
 **** Fit       0.009788
 **** Fit       0.010933
 **** Fit       0.012037
 **** Fit       0.012701
 **** Fit       0.012536
 **** Fit       0.011451
 **** Fit       0.009727
 **** Fit       0.007800
 **** Fit       0.006000
 **** Fit       0.004472
 **** Fit       0.003232
 **** Fit       0.002834
 **** Fit       0.003377
 **** Fit       0.003981
 **** Fit       0.004617
 **** Fit       0.005242
 **** Fit       0.005829
 **** Fit       0.006385
 **** Fit       0.006964
 **** Fit       0.007641
 **** Fit       0.008465
 **** Fit       0.009398
 **** Fit       0.010263
 **** Fit       0.010764
 **** Fit       0.010623
 **** Fit       0.009774
 **** Fit       0.008415
 **** Fit       0.006862
 **** Fit       0.005371
 **** Fit       0.004069
 **** Fit       0.002983
 **** Fit       0.002945
 **** Fit       0.003408
 **** Fit       0.003893
 **** Fit       0.004377
 **** Fit       0.004844
 **** Fit       0.005303
 **** Fit       0.005783
 **** Fit       0.006326
 **** Fit       0.006953
 **** Fit       0.007625
 **** Fit       0.008219
 **** Fit       0.008540
 **** Fit       0.008416
 **** Fit       0.007805
 **** Fit       0.006825
 **** Fit       0.005676
 **** Fit       0.004532
 **** Fit       0.003494
 **** Fit       0.002597
 **** Fit       0.003249
 **** Fit       0.003606
 **** Fit       0.003957
 **** Fit       0.004304
 **** Fit       0.004664
 **** Fit       0.005057
 **** Fit       0.005487
 **** Fit       0.005923
 **** Fit       0.006287
 **** Fit       0.006463
 **** Fit       0.006356
 **** Fit       0.005937
 **** Fit       0.005269
 **** Fit       0.004465
 **** Fit       0.003634
 **** Fit       0.002848
 **** Fit       0.003941
 **** Fit       0.004208
 **** Fit       0.004463
 **** Fit       0.004662
 **** Fit       0.004740
 **** Fit       0.004646
 **** Fit       0.004363
 **** Fit       0.003918
 **** Fit       0.003372
 **** Fit       0.002787
 **** Fit       0.003170
 **** Fit       0.003300
 **** Fit       0.003390
 **** Fit       0.003407
 **** Fit       0.003323
 **** Fit       0.003126
 **** Fit       0.002828
 **** Fit       0.002458
 **** Fit       0.002419
 **** Fit       0.002340
 **** Fit       0.003457
 **** Fit       0.003812
 **** Fit       0.004089
 **** Fit       0.004278
 **** Fit       0.004384
 **** Fit       0.004219
 **** Fit       0.004000
 **** Fit       0.003678
 **** Fit       0.003254
 **** Fit       0.002752
 **** Fit       0.003058
 **** Fit       0.003580
 **** Fit       0.004090
 **** Fit       0.004545
 **** Fit       0.004908
 **** Fit       0.005167
 **** Fit       0.005334
 **** Fit       0.005437
 **** Fit       0.005496
 **** Fit       0.005509
 **** Fit       0.005444
 **** Fit       0.005257
 **** Fit       0.004914
 **** Fit       0.004412
 **** Fit       0.003786
 **** Fit       0.003095
 **** Fit       0.002397
 **** Fit       0.003430
 **** Fit       0.004047
 **** Fit       0.004661
 **** Fit       0.005215
 **** Fit       0.005666
 **** Fit       0.005999
 **** Fit       0.006237
 **** Fit       0.006424
 **** Fit       0.006586
 **** Fit       0.006715
 **** Fit       0.006756
 **** Fit       0.006631
 **** Fit       0.006278
 **** Fit       0.005688
 **** Fit       0.004915
 **** Fit       0.004049
 **** Fit       0.003178
 **** Fit       0.003704
 **** Fit       0.004395
 **** Fit       0.005090
 **** Fit       0.005726
 **** Fit       0.006254
 **** Fit       0.006662
 **** Fit       0.006982
 **** Fit       0.007271
 **** Fit       0.007564
 **** Fit       0.007844
 **** Fit       0.008029
 **** Fit       0.007998
 **** Fit       0.007652
 **** Fit       0.006973
 **** Fit       0.006041
 **** Fit       0.004985
 **** Fit       0.003932
 **** Fit       0.002964
 **** Fit       0.003178
 **** Fit       0.003842
 **** Fit       0.004568
 **** Fit       0.005306
 **** Fit       0.005992
 **** Fit       0.006576
 **** Fit       0.007049
 **** Fit       0.007453
 **** Fit       0.007853
 **** Fit       0.008289
 **** Fit       0.008733
 **** Fit       0.009077
 **** Fit       0.009157
 **** Fit       0.008834
 **** Fit       0.008083
 **** Fit       0.007007
 **** Fit       0.005782
 **** Fit       0.004568
 **** Fit       0.003465
 **** Fit       0.003830
 **** Fit       0.004545
 **** Fit       0.005278
 **** Fit       0.005970
 **** Fit       0.006578
 **** Fit       0.007098
 **** Fit       0.007574
 **** Fit       0.008071
 **** Fit       0.008628
 **** Fit       0.009210
 **** Fit       0.009686
 **** Fit       0.009864
 **** Fit       0.009577
 **** Fit       0.008791
 **** Fit       0.007630
 **** Fit       0.006300
 **** Fit       0.004987
 **** Fit       0.003802
 **** Fit       0.002788
 **** Fit       0.003680
 **** Fit       0.004342
 **** Fit       0.005025
 **** Fit       0.005681
 **** Fit       0.006277
 **** Fit       0.006814
 **** Fit       0.007332
 **** Fit       0.007887
 **** Fit       0.008510
 **** Fit       0.009160
 **** Fit       0.009701
 **** Fit       0.009933
 **** Fit       0.009685
 **** Fit       0.008921
 **** Fit       0.007767
 **** Fit       0.006436
 **** Fit       0.005118
 **** Fit       0.003928
 **** Fit       0.002907
 **** Fit       0.003427
 **** Fit       0.004007
 **** Fit       0.004609
 **** Fit       0.005197
 **** Fit       0.005748
 **** Fit       0.006267
 **** Fit       0.006783
 **** Fit       0.007341
 **** Fit       0.007957
 **** Fit       0.008588
 **** Fit       0.009109
 **** Fit       0.009340
 **** Fit       0.009128
 **** Fit       0.008442
 **** Fit       0.007392
 **** Fit       0.006170
 **** Fit       0.004947
 **** Fit       0.003830
 **** Fit       0.002863
 **** Fit       0.003601
 **** Fit       0.004106
 **** Fit       0.004606
 **** Fit       0.005089
 **** Fit       0.005556
 **** Fit       0.006029
 **** Fit       0.006536
 **** Fit       0.007081
 **** Fit       0.007622
 **** Fit       0.008057
 **** Fit       0.008243
 **** Fit       0.008063
 **** Fit       0.007490
 **** Fit       0.006612
 **** Fit       0.005575
 **** Fit       0.004520
 **** Fit       0.003538
 **** Fit       0.003989
 **** Fit       0.004388
 **** Fit       0.005600
 **** Fit       0.006037
 **** Fit       0.006453
 **** Fit       0.006774
 **** Fit       0.006898
 **** Fit       0.006744
 **** Fit       0.006294
 **** Fit       0.005606
 **** Fit       0.004783
 **** Fit       0.003927
 **** Fit       0.003110
 **** Fit       0.004653
 **** Fit       0.004972
 **** Fit       0.005263
 **** Fit       0.005474
 **** Fit       0.005539
 **** Fit       0.005407
 **** Fit       0.005067
 **** Fit       0.004552
 **** Fit       0.003928
 **** Fit       0.003263
 **** Fit       0.004175
 **** Fit       0.004297
 **** Fit       0.004316
 **** Fit       0.004202
 **** Fit       0.003947
 **** Fit       0.003570
 **** Fit       0.003109
 **** Fit       0.003294
 **** Fit       0.003194
 **** Fit       0.003001
 **** Fit       0.004647
 **** Fit       0.004476
 **** Fit       0.004189
 **** Fit       0.003788
 **** Fit       0.003918
 **** Fit       0.004337
 **** Fit       0.004696
 **** Fit       0.004984
 **** Fit       0.005588
 **** Fit       0.005575
 **** Fit       0.005435
 **** Fit       0.005140
 **** Fit       0.004687
 **** Fit       0.004109
 **** Fit       0.003456
 **** Fit       0.004230
 **** Fit       0.004703
 **** Fit       0.005117
 **** Fit       0.005462
 **** Fit       0.005749
 **** Fit       0.006208
 **** Fit       0.006368
 **** Fit       0.006430
 **** Fit       0.006336
 **** Fit       0.006042
 **** Fit       0.005543
 **** Fit       0.004880
 **** Fit       0.004122
 **** Fit       0.003341
 **** Fit       0.004398
 **** Fit       0.004906
 **** Fit       0.005359
 **** Fit       0.005752
 **** Fit       0.006097
 **** Fit       0.006415
 **** Fit       0.006710
 **** Fit       0.006959
 **** Fit       0.007101
 **** Fit       0.007060
 **** Fit       0.006778
 **** Fit       0.006246
 **** Fit       0.005514
 **** Fit       0.004669
 **** Fit       0.003799
 **** Fit       0.004405
 **** Fit       0.004921
 **** Fit       0.005393
 **** Fit       0.005817
 **** Fit       0.006207
 **** Fit       0.006582
 **** Fit       0.006945
 **** Fit       0.007267
 **** Fit       0.007476
 **** Fit       0.007484
 **** Fit       0.007223
 **** Fit       0.006680
 **** Fit       0.005912
 **** Fit       0.005019
 **** Fit       0.004098
 **** Fit       0.004258
 **** Fit       0.004756
 **** Fit       0.005223
 **** Fit       0.005656
 **** Fit       0.006068
 **** Fit       0.006474
 **** Fit       0.006875
 **** Fit       0.007235
 **** Fit       0.007482
 **** Fit       0.007523
 **** Fit       0.007287
 **** Fit       0.006762
 **** Fit       0.006005
 **** Fit       0.005116
 **** Fit       0.004196
 **** Fit       0.006114
 **** Fit       0.006513
 **** Fit       0.006870
 **** Fit       0.007118
 **** Fit       0.007170
 **** Fit       0.006962
 **** Fit       0.006481
 **** Fit       0.005780
 **** Fit       0.004950
 **** Fit       0.004085
 **** Fit       0.005922
 **** Fit       0.006240
 **** Fit       0.006456
 **** Fit       0.006500
 **** Fit       0.006318
 **** Fit       0.005901
 **** Fit       0.005290
 **** Fit       0.004561
 **** Fit       0.003792
 **** Fit       0.005193
 **** Fit       0.005450
 **** Fit       0.005617
 **** Fit       0.005642
 **** Fit       0.005484
 **** Fit       0.005137
 **** Fit       0.004630
 **** Fit       0.004021
 **** Fit       0.004608
 **** Fit       0.004722
 **** Fit       0.004725
 **** Fit       0.004588
 **** Fit       0.004307
 **** Fit       0.003902
 **** Fit       0.005099
 **** Fit       0.004852
 **** Fit       0.004472
 **** Fit       0.005664
 **** Fit       0.005580
 **** Fit       0.005340
 **** Fit       0.004943
 **** Fit       0.004416
 **** Fit       0.005830
 **** Fit       0.005912
 **** Fit       0.005855
 **** Fit       0.005628
 **** Fit       0.005228
 **** Fit       0.004686
 **** Fit       0.005814
 **** Fit       0.005920
 **** Fit       0.005883
 **** Fit       0.005674
 **** Fit       0.005287
 **** Fit       0.004753
 **** Fit       0.005575
 **** Fit       0.005687
 **** Fit       0.005662
 **** Fit       0.005472
 **** Fit       0.005114
 **** Fit       0.004613
 **** Fit       0.005253
 **** Fit       0.005232
 **** Fit       0.005062
 **** Fit       0.004742
 -----------------------------------------------------------------
 Leave Link  602 at Thu Apr 21 11:37:56 2022, MaxMem=   104857600 cpu:               5.4 elap:               5.5
 (Enter /opt/ohpc/pub/libs/gaussian/g16-A.03/haswell/g16/l9999.exe)

 Test job not archived.
 1\1\GINC-CASCADEB056\SP\RB3LYP\6-311++G(d,p)\C12H21N1O4\MNG228\21-Apr-
 2022\0\\#P B3LYP/6-311++G(d,p) Geom=Allcheck SCF=Tight EmpiricalDisper
 sion=GD3BJ Pop=CHELPG SP IOp(6/33=2)\\MAA1-DMA1 geo opt\\0,1\C,0,11.25
 32585204,11.7727679696,1.6900152165\C,0,12.4804388533,12.6396459244,1.
 7456782386\C,0,12.6292903083,13.765900881,1.0444232144\C,0,13.60698392
 29,12.2298278775,2.6440571185\O,0,14.644719549,12.8495308645,2.7748974
 724\O,0,13.3383395755,11.1023170268,3.3123100455\H,0,10.5188270804,12.
 1911990747,0.9998999063\H,0,10.7949319216,11.6788731491,2.6778840159\H
 ,0,11.503828368,10.7595661306,1.3656733868\H,0,11.8509808309,14.121469
 693,0.3792128194\H,0,13.5389000086,14.3475685628,1.1269519625\H,0,14.0
 957405426,10.8748343368,3.9005750894\C,0,18.1594508564,9.8506264419,7.
 3333318979\C,0,17.1225905685,9.4547161022,6.3188383605\C,0,16.99930849
 81,8.2218698243,5.8205337368\C,0,16.1654944456,10.4921451485,5.8276689
 95\O,0,15.2937262224,10.2815996936,5.0024766026\O,0,16.3817916727,11.6
 759585764,6.4042656451\C,0,15.5419233707,12.8014931021,6.0243265932\C,
 0,14.2399663863,12.7703841717,6.8209223126\N,0,13.5254174195,14.039051
 0867,6.7360041277\C,0,12.9614569296,14.2778470148,5.4105141457\C,0,12.
 496420672,14.1290817256,7.7630721334\H,0,18.7824698416,8.9940362151,7.
 5942693112\H,0,17.6927826126,10.2351664714,8.2436672324\H,0,18.8011184
 171,10.6471835085,6.9486077294\H,0,17.6617309517,7.4230970262,6.132615
 7502\H,0,16.2327799746,7.9950027004,5.0904843962\H,0,15.3923161243,12.
 7827368533,4.9461648272\H,0,16.122432369,13.6796040372,6.3014995261\H,
 0,14.4989759374,12.597491496,7.8690474782\H,0,13.6165988161,11.9210413
 121,6.4905650932\H,0,12.223485418,13.5062955969,5.1236314503\H,0,13.74
 38602704,14.2965860009,4.6532522626\H,0,12.4610630595,15.2482239066,5.
 4018153595\H,0,12.9459090083,14.0159956925,8.7521855033\H,0,11.7098352
 851,13.3600098423,7.6496034634\H,0,12.0188553908,15.110254962,7.716057
 5803\\Version=ES64L-G16RevA.03\State=1-A\HF=-825.8689088\RMSD=8.476e-0
 9\Dipole=-0.0882766,-0.3164941,0.6900033\Quadrupole=2.2277454,-1.37518
 26,-0.8525628,-7.011521,6.008917,-2.8657025\PG=C01 [X(C12H21N1O4)]\\@


 FROM AN ANONYMOUS WRITER, ON PERSPECTIVE:

 MAN, DESPITE HIS ARTISTIC PRETENSIONS, HIS SOPHISTICATION AND MANY 
 ACCOMPLISHMENTS, OWES THE FACT OF HIS EXISTENCE TO A SIX-INCH LAYER OF 
 TOPSOIL AND THE FACT THAT IT RAINS.
 Job cpu time:       0 days  0 hours 16 minutes 53.8 seconds.
 Elapsed time:       0 days  0 hours 16 minutes 56.9 seconds.
 File lengths (MBytes):  RWF=    368 Int=      0 D2E=      0 Chk=     48 Scr=     32
 Normal termination of Gaussian 16 at Thu Apr 21 11:37:56 2022.
