 Entering Gaussian System, Link 0=g16
 Initial command:
 /opt/ohpc/pub/libs/gaussian/g16-A.03/haswell/g16/l1.exe "g16_scratch/Gau-105760.inp" -scrdir="g16_scratch/"
 Entering Link 1 = /opt/ohpc/pub/libs/gaussian/g16-A.03/haswell/g16/l1.exe PID=    105762.
  
 Copyright (c) 1988,1990,1992,1993,1995,1998,2003,2009,2016,
            Gaussian, Inc.  All Rights Reserved.
  
 This is part of the Gaussian(R) 16 program.  It is based on
 the Gaussian(R) 09 system (copyright 2009, Gaussian, Inc.),
 the Gaussian(R) 03 system (copyright 2003, Gaussian, Inc.),
 the Gaussian(R) 98 system (copyright 1998, Gaussian, Inc.),
 the Gaussian(R) 94 system (copyright 1995, Gaussian, Inc.),
 the Gaussian 92(TM) system (copyright 1992, Gaussian, Inc.),
 the Gaussian 90(TM) system (copyright 1990, Gaussian, Inc.),
 the Gaussian 88(TM) system (copyright 1988, Gaussian, Inc.),
 the Gaussian 86(TM) system (copyright 1986, Carnegie Mellon
 University), and the Gaussian 82(TM) system (copyright 1983,
 Carnegie Mellon University). Gaussian is a federally registered
 trademark of Gaussian, Inc.
  
 This software contains proprietary and confidential information,
 including trade secrets, belonging to Gaussian, Inc.
  
 This software is provided under written license and may be
 used, copied, transmitted, or stored only in accord with that
 written license.
  
 The following legend is applicable only to US Government
 contracts under FAR:
  
                    RESTRICTED RIGHTS LEGEND
  
 Use, reproduction and disclosure by the US Government is
 subject to restrictions as set forth in subparagraphs (a)
 and (c) of the Commercial Computer Software - Restricted
 Rights clause in FAR 52.227-19.
  
 Gaussian, Inc.
 340 Quinnipiac St., Bldg. 40, Wallingford CT 06492
  
  
 ---------------------------------------------------------------
 Warning -- This program may not be used in any manner that
 competes with the business of Gaussian, Inc. or will provide
 assistance to any competitor of Gaussian, Inc.  The licensee
 of this program is prohibited from giving any competitor of
 Gaussian, Inc. access to this program.  By using this program,
 the user acknowledges that Gaussian, Inc. is engaged in the
 business of creating and licensing software in the field of
 computational chemistry and represents and warrants to the
 licensee that it is not a competitor of Gaussian, Inc. and that
 it will not use this program in any manner prohibited above.
 ---------------------------------------------------------------
  

 Cite this work as:
 Gaussian 16, Revision A.03,
 M. J. Frisch, G. W. Trucks, H. B. Schlegel, G. E. Scuseria, 
 M. A. Robb, J. R. Cheeseman, G. Scalmani, V. Barone, 
 G. A. Petersson, H. Nakatsuji, X. Li, M. Caricato, A. V. Marenich, 
 J. Bloino, B. G. Janesko, R. Gomperts, B. Mennucci, H. P. Hratchian, 
 J. V. Ortiz, A. F. Izmaylov, J. L. Sonnenberg, D. Williams-Young, 
 F. Ding, F. Lipparini, F. Egidi, J. Goings, B. Peng, A. Petrone, 
 T. Henderson, D. Ranasinghe, V. G. Zakrzewski, J. Gao, N. Rega, 
 G. Zheng, W. Liang, M. Hada, M. Ehara, K. Toyota, R. Fukuda, 
 J. Hasegawa, M. Ishida, T. Nakajima, Y. Honda, O. Kitao, H. Nakai, 
 T. Vreven, K. Throssell, J. A. Montgomery, Jr., J. E. Peralta, 
 F. Ogliaro, M. J. Bearpark, J. J. Heyd, E. N. Brothers, K. N. Kudin, 
 V. N. Staroverov, T. A. Keith, R. Kobayashi, J. Normand, 
 K. Raghavachari, A. P. Rendell, J. C. Burant, S. S. Iyengar, 
 J. Tomasi, M. Cossi, J. M. Millam, M. Klene, C. Adamo, R. Cammi, 
 J. W. Ochterski, R. L. Martin, K. Morokuma, O. Farkas, 
 J. B. Foresman, and D. J. Fox, Gaussian, Inc., Wallingford CT, 2016.
 
 ******************************************
 Gaussian 16:  ES64L-G16RevA.03 25-Dec-2016
                21-Apr-2022 
 ******************************************
 %Mem=192GB
 %NProcShared=48
 Will use up to   48 processors via shared memory.
 %Chk=MAA1-DMA1-5.chk
 ---------------------------------------------------------------------
 #n B3LYP/6-311++G(d,p) Opt freq EmpiricalDispersion=GD3BJ IOp(6/33=2)
 ---------------------------------------------------------------------
 1/18=20,19=15,26=3,38=1/1,3;
 2/9=110,12=2,17=6,18=5,40=1/2;
 3/5=4,6=6,7=1111,11=2,25=1,30=1,71=1,74=-5,124=41/1,2,3;
 4//1;
 5/5=2,38=5/2;
 6/7=2,8=2,9=2,10=2,28=1,33=2/1;
 7//1,2,3,16;
 1/18=20,19=15,26=3/3(2);
 2/9=110/2;
 99//99;
 2/9=110/2;
 3/5=4,6=6,7=1111,11=2,25=1,30=1,71=1,74=-5,124=41/1,2,3;
 4/5=5,16=3,69=1/1;
 5/5=2,38=5/2;
 7//1,2,3,16;
 1/18=20,19=15,26=3/3(-5);
 2/9=110/2;
 6/7=2,8=2,9=2,10=2,19=2,28=1,33=2/1;
 99/9=1/99;
 -----------------
 MAA1-DMA1 geo opt
 -----------------
 Symbolic Z-matrix:
 Charge =  0 Multiplicity = 1
 C                     13.887    12.014    12.392 
 C                     12.566    12.771    12.419 
 C                     12.508    14.125    12.256 
 C                     11.329    12.061    12.651 
 O                     10.204    12.57     12.354 
 O                     11.429    10.821    13.163 
 H                     13.7      10.949    12.25 
 H                     14.395    12.305    13.311 
 H                     14.468    12.415    11.561 
 H                     13.392    14.719    12.077 
 H                     11.591    14.696    12.277 
 H                     10.531    10.554    13.289 
 C                     8.756     9.527     10.401 
 C                     7.684     9.779     11.457 
 C                     6.427     9.624     11.168 
 C                     7.958     10.302    12.788 
 O                     8.888     9.907     13.52 
 O                     7.068     11.27     13.117 
 C                     7.04      11.89     14.345 
 C                     8.193     12.789    14.721 
 N                     7.984     13.515    15.989 
 C                     8.83      13.071    17.039 
 C                     7.913     14.999    15.814 
 H                     9.738     9.906     10.685 
 H                     8.381     9.67      9.387 
 H                     9.04      8.475     10.386 
 H                     6.035     9.365     10.195 
 H                     5.671     9.671     11.937 
 H                     7.046     11.055    15.046 
 H                     6.157     12.509    14.501 
 H                     8.253     13.482    13.883 
 H                     9.066     12.164    14.53 
 H                     8.756     11.997    17.209 
 H                     8.602     13.504    18.013 
 H                     9.871     13.3      16.812 
 H                     7.721     15.359    16.825 
 H                     6.999     15.243    15.273 
 H                     8.875     15.32     15.415 
 
 Add virtual bond connecting atoms O17        and H12        Dist= 3.37D+00.

 GradGradGradGradGradGradGradGradGradGradGradGradGradGradGradGradGradGrad
 Berny optimization.
 Initialization pass.
                           ----------------------------
                           !    Initial Parameters    !
                           ! (Angstroms and Degrees)  !
 --------------------------                            --------------------------
 ! Name  Definition              Value          Derivative Info.                !
 --------------------------------------------------------------------------------
 ! R1    R(1,2)                  1.5228         estimate D2E/DX2                !
 ! R2    R(1,7)                  1.0906         estimate D2E/DX2                !
 ! R3    R(1,8)                  1.0896         estimate D2E/DX2                !
 ! R4    R(1,9)                  1.0904         estimate D2E/DX2                !
 ! R5    R(2,3)                  1.365          estimate D2E/DX2                !
 ! R6    R(2,4)                  1.445          estimate D2E/DX2                !
 ! R7    R(3,10)                 1.08           estimate D2E/DX2                !
 ! R8    R(3,11)                 1.0804         estimate D2E/DX2                !
 ! R9    R(4,5)                  1.27           estimate D2E/DX2                !
 ! R10   R(4,6)                  1.3453         estimate D2E/DX2                !
 ! R11   R(6,12)                 0.9453         estimate D2E/DX2                !
 ! R12   R(12,17)                1.7808         estimate D2E/DX2                !
 ! R13   R(13,14)                1.5257         estimate D2E/DX2                !
 ! R14   R(13,24)                1.0902         estimate D2E/DX2                !
 ! R15   R(13,25)                1.0905         estimate D2E/DX2                !
 ! R16   R(13,26)                1.0898         estimate D2E/DX2                !
 ! R17   R(14,15)                1.2991         estimate D2E/DX2                !
 ! R18   R(14,16)                1.4561         estimate D2E/DX2                !
 ! R19   R(15,27)                1.0805         estimate D2E/DX2                !
 ! R20   R(15,28)                1.0794         estimate D2E/DX2                !
 ! R21   R(16,17)                1.2477         estimate D2E/DX2                !
 ! R22   R(16,18)                1.3555         estimate D2E/DX2                !
 ! R23   R(18,19)                1.3759         estimate D2E/DX2                !
 ! R24   R(19,20)                1.5096         estimate D2E/DX2                !
 ! R25   R(19,29)                1.0903         estimate D2E/DX2                !
 ! R26   R(19,30)                1.0896         estimate D2E/DX2                !
 ! R27   R(20,21)                1.476          estimate D2E/DX2                !
 ! R28   R(20,31)                1.0891         estimate D2E/DX2                !
 ! R29   R(20,32)                1.0905         estimate D2E/DX2                !
 ! R30   R(21,22)                1.4196         estimate D2E/DX2                !
 ! R31   R(21,23)                1.496          estimate D2E/DX2                !
 ! R32   R(22,33)                1.0899         estimate D2E/DX2                !
 ! R33   R(22,34)                1.09           estimate D2E/DX2                !
 ! R34   R(22,35)                1.0898         estimate D2E/DX2                !
 ! R35   R(23,36)                1.0902         estimate D2E/DX2                !
 ! R36   R(23,37)                1.0898         estimate D2E/DX2                !
 ! R37   R(23,38)                1.0898         estimate D2E/DX2                !
 ! A1    A(2,1,7)              109.8173         estimate D2E/DX2                !
 ! A2    A(2,1,8)              104.8756         estimate D2E/DX2                !
 ! A3    A(2,1,9)              107.0336         estimate D2E/DX2                !
 ! A4    A(7,1,8)              116.7793         estimate D2E/DX2                !
 ! A5    A(7,1,9)              110.565          estimate D2E/DX2                !
 ! A6    A(8,1,9)              107.226          estimate D2E/DX2                !
 ! A7    A(1,2,3)              121.8607         estimate D2E/DX2                !
 ! A8    A(1,2,4)              120.0798         estimate D2E/DX2                !
 ! A9    A(3,2,4)              118.0458         estimate D2E/DX2                !
 ! A10   A(2,3,10)             122.0454         estimate D2E/DX2                !
 ! A11   A(2,3,11)             123.9151         estimate D2E/DX2                !
 ! A12   A(10,3,11)            114.0329         estimate D2E/DX2                !
 ! A13   A(2,4,5)              121.5897         estimate D2E/DX2                !
 ! A14   A(2,4,6)              116.7671         estimate D2E/DX2                !
 ! A15   A(5,4,6)              121.6195         estimate D2E/DX2                !
 ! A16   A(4,6,12)             103.914          estimate D2E/DX2                !
 ! A17   A(14,13,24)           113.2753         estimate D2E/DX2                !
 ! A18   A(14,13,25)           112.3517         estimate D2E/DX2                !
 ! A19   A(14,13,26)           110.6145         estimate D2E/DX2                !
 ! A20   A(24,13,25)           120.4214         estimate D2E/DX2                !
 ! A21   A(24,13,26)            95.9946         estimate D2E/DX2                !
 ! A22   A(25,13,26)           101.7358         estimate D2E/DX2                !
 ! A23   A(13,14,15)           120.4097         estimate D2E/DX2                !
 ! A24   A(13,14,16)           124.041          estimate D2E/DX2                !
 ! A25   A(15,14,16)           115.3593         estimate D2E/DX2                !
 ! A26   A(14,15,27)           125.4491         estimate D2E/DX2                !
 ! A27   A(14,15,28)           120.9318         estimate D2E/DX2                !
 ! A28   A(27,15,28)           113.4465         estimate D2E/DX2                !
 ! A29   A(14,16,17)           124.252          estimate D2E/DX2                !
 ! A30   A(14,16,18)           110.7822         estimate D2E/DX2                !
 ! A31   A(17,16,18)           124.9658         estimate D2E/DX2                !
 ! A32   A(12,17,16)           119.7726         estimate D2E/DX2                !
 ! A33   A(16,18,19)           123.4889         estimate D2E/DX2                !
 ! A34   A(18,19,20)           118.3651         estimate D2E/DX2                !
 ! A35   A(18,19,29)           103.216          estimate D2E/DX2                !
 ! A36   A(18,19,30)           113.5948         estimate D2E/DX2                !
 ! A37   A(20,19,29)           106.9622         estimate D2E/DX2                !
 ! A38   A(20,19,30)           104.1808         estimate D2E/DX2                !
 ! A39   A(29,19,30)           110.3347         estimate D2E/DX2                !
 ! A40   A(19,20,21)           113.499          estimate D2E/DX2                !
 ! A41   A(19,20,31)           103.2596         estimate D2E/DX2                !
 ! A42   A(19,20,32)           103.0909         estimate D2E/DX2                !
 ! A43   A(21,20,31)           110.8449         estimate D2E/DX2                !
 ! A44   A(21,20,32)           123.0738         estimate D2E/DX2                !
 ! A45   A(31,20,32)           100.7087         estimate D2E/DX2                !
 ! A46   A(20,21,22)           113.402          estimate D2E/DX2                !
 ! A47   A(20,21,23)           113.2135         estimate D2E/DX2                !
 ! A48   A(22,21,23)           115.1545         estimate D2E/DX2                !
 ! A49   A(21,22,33)           112.5261         estimate D2E/DX2                !
 ! A50   A(21,22,34)           114.3313         estimate D2E/DX2                !
 ! A51   A(21,22,35)           110.4546         estimate D2E/DX2                !
 ! A52   A(33,22,34)           103.7609         estimate D2E/DX2                !
 ! A53   A(33,22,35)           107.723          estimate D2E/DX2                !
 ! A54   A(34,22,35)           107.6053         estimate D2E/DX2                !
 ! A55   A(21,23,36)           103.1466         estimate D2E/DX2                !
 ! A56   A(21,23,37)           108.6621         estimate D2E/DX2                !
 ! A57   A(21,23,38)           107.0451         estimate D2E/DX2                !
 ! A58   A(36,23,37)           103.811          estimate D2E/DX2                !
 ! A59   A(36,23,38)           113.4351         estimate D2E/DX2                !
 ! A60   A(37,23,38)           119.5143         estimate D2E/DX2                !
 ! A61   L(6,12,17,5,-1)       184.3986         estimate D2E/DX2                !
 ! A62   L(6,12,17,5,-2)       177.7988         estimate D2E/DX2                !
 ! D1    D(7,1,2,3)           -163.6909         estimate D2E/DX2                !
 ! D2    D(7,1,2,4)             17.683          estimate D2E/DX2                !
 ! D3    D(8,1,2,3)             70.0636         estimate D2E/DX2                !
 ! D4    D(8,1,2,4)           -108.5625         estimate D2E/DX2                !
 ! D5    D(9,1,2,3)            -43.6301         estimate D2E/DX2                !
 ! D6    D(9,1,2,4)            137.7438         estimate D2E/DX2                !
 ! D7    D(1,2,3,10)             1.492          estimate D2E/DX2                !
 ! D8    D(1,2,3,11)          -179.5001         estimate D2E/DX2                !
 ! D9    D(4,2,3,10)          -179.855          estimate D2E/DX2                !
 ! D10   D(4,2,3,11)            -0.8472         estimate D2E/DX2                !
 ! D11   D(1,2,4,5)           -161.9918         estimate D2E/DX2                !
 ! D12   D(1,2,4,6)             16.2641         estimate D2E/DX2                !
 ! D13   D(3,2,4,5)             19.3304         estimate D2E/DX2                !
 ! D14   D(3,2,4,6)           -162.4138         estimate D2E/DX2                !
 ! D15   D(2,4,6,12)           176.5793         estimate D2E/DX2                !
 ! D16   D(5,4,6,12)            -5.1654         estimate D2E/DX2                !
 ! D17   D(4,6,17,16)           28.9967         estimate D2E/DX2                !
 ! D18   D(24,13,14,15)        166.6897         estimate D2E/DX2                !
 ! D19   D(24,13,14,16)         -8.0639         estimate D2E/DX2                !
 ! D20   D(25,13,14,15)         26.0776         estimate D2E/DX2                !
 ! D21   D(25,13,14,16)       -148.676          estimate D2E/DX2                !
 ! D22   D(26,13,14,15)        -86.8546         estimate D2E/DX2                !
 ! D23   D(26,13,14,16)         98.3919         estimate D2E/DX2                !
 ! D24   D(13,14,15,27)         -3.1037         estimate D2E/DX2                !
 ! D25   D(13,14,15,28)        171.8            estimate D2E/DX2                !
 ! D26   D(16,14,15,27)        172.0863         estimate D2E/DX2                !
 ! D27   D(16,14,15,28)        -13.01           estimate D2E/DX2                !
 ! D28   D(13,14,16,17)        -44.918          estimate D2E/DX2                !
 ! D29   D(13,14,16,18)        135.0879         estimate D2E/DX2                !
 ! D30   D(15,14,16,17)        140.0886         estimate D2E/DX2                !
 ! D31   D(15,14,16,18)        -39.9055         estimate D2E/DX2                !
 ! D32   D(14,16,17,12)         82.476          estimate D2E/DX2                !
 ! D33   D(18,16,17,12)        -97.5307         estimate D2E/DX2                !
 ! D34   D(14,16,18,19)        176.2572         estimate D2E/DX2                !
 ! D35   D(17,16,18,19)         -3.7368         estimate D2E/DX2                !
 ! D36   D(16,18,19,20)         67.7485         estimate D2E/DX2                !
 ! D37   D(16,18,19,29)        -50.1146         estimate D2E/DX2                !
 ! D38   D(16,18,19,30)       -169.5931         estimate D2E/DX2                !
 ! D39   D(18,19,20,21)        173.5197         estimate D2E/DX2                !
 ! D40   D(18,19,20,31)         53.4466         estimate D2E/DX2                !
 ! D41   D(18,19,20,32)        -51.078          estimate D2E/DX2                !
 ! D42   D(29,19,20,21)        -70.6115         estimate D2E/DX2                !
 ! D43   D(29,19,20,31)        169.3154         estimate D2E/DX2                !
 ! D44   D(29,19,20,32)         64.7908         estimate D2E/DX2                !
 ! D45   D(30,19,20,21)         46.2475         estimate D2E/DX2                !
 ! D46   D(30,19,20,31)        -73.8256         estimate D2E/DX2                !
 ! D47   D(30,19,20,32)       -178.3502         estimate D2E/DX2                !
 ! D48   D(19,20,21,22)        110.5002         estimate D2E/DX2                !
 ! D49   D(19,20,21,23)       -115.9037         estimate D2E/DX2                !
 ! D50   D(31,20,21,22)       -133.8306         estimate D2E/DX2                !
 ! D51   D(31,20,21,23)         -0.2345         estimate D2E/DX2                !
 ! D52   D(32,20,21,22)        -14.8021         estimate D2E/DX2                !
 ! D53   D(32,20,21,23)        118.794          estimate D2E/DX2                !
 ! D54   D(20,21,22,33)        -54.4191         estimate D2E/DX2                !
 ! D55   D(20,21,22,34)       -172.4637         estimate D2E/DX2                !
 ! D56   D(20,21,22,35)         66.0072         estimate D2E/DX2                !
 ! D57   D(23,21,22,33)        172.9153         estimate D2E/DX2                !
 ! D58   D(23,21,22,34)         54.8707         estimate D2E/DX2                !
 ! D59   D(23,21,22,35)        -66.6584         estimate D2E/DX2                !
 ! D60   D(20,21,23,36)        177.9078         estimate D2E/DX2                !
 ! D61   D(20,21,23,37)         68.175          estimate D2E/DX2                !
 ! D62   D(20,21,23,38)        -62.1724         estimate D2E/DX2                !
 ! D63   D(22,21,23,36)        -49.3386         estimate D2E/DX2                !
 ! D64   D(22,21,23,37)       -159.0715         estimate D2E/DX2                !
 ! D65   D(22,21,23,38)         70.5811         estimate D2E/DX2                !
 --------------------------------------------------------------------------------
 Trust Radius=3.00D-01 FncErr=1.00D-07 GrdErr=1.00D-06 EigMax=2.50D+02 EigMin=1.00D-04
 Number of steps in this run=    174 maximum allowed number of steps=    228.
 GradGradGradGradGradGradGradGradGradGradGradGradGradGradGradGradGradGrad

                          Input orientation:                          
 ---------------------------------------------------------------------
 Center     Atomic      Atomic             Coordinates (Angstroms)
 Number     Number       Type             X           Y           Z
 ---------------------------------------------------------------------
      1          6           0       13.887000   12.014000   12.392000
      2          6           0       12.566000   12.771000   12.419000
      3          6           0       12.508000   14.125000   12.256000
      4          6           0       11.329000   12.061000   12.651000
      5          8           0       10.204000   12.570000   12.354000
      6          8           0       11.429000   10.821000   13.163000
      7          1           0       13.700000   10.949000   12.250000
      8          1           0       14.395000   12.305000   13.311000
      9          1           0       14.468000   12.415000   11.561000
     10          1           0       13.392000   14.719000   12.077000
     11          1           0       11.591000   14.696000   12.277000
     12          1           0       10.531000   10.554000   13.289000
     13          6           0        8.756000    9.527000   10.401000
     14          6           0        7.684000    9.779000   11.457000
     15          6           0        6.427000    9.624000   11.168000
     16          6           0        7.958000   10.302000   12.788000
     17          8           0        8.888000    9.907000   13.520000
     18          8           0        7.068000   11.270000   13.117000
     19          6           0        7.040000   11.890000   14.345000
     20          6           0        8.193000   12.789000   14.721000
     21          7           0        7.984000   13.515000   15.989000
     22          6           0        8.830000   13.071000   17.039000
     23          6           0        7.913000   14.999000   15.814000
     24          1           0        9.738000    9.906000   10.685000
     25          1           0        8.381000    9.670000    9.387000
     26          1           0        9.040000    8.475000   10.386000
     27          1           0        6.035000    9.365000   10.195000
     28          1           0        5.671000    9.671000   11.937000
     29          1           0        7.046000   11.055000   15.046000
     30          1           0        6.157000   12.509000   14.501000
     31          1           0        8.253000   13.482000   13.883000
     32          1           0        9.066000   12.164000   14.530000
     33          1           0        8.756000   11.997000   17.209000
     34          1           0        8.602000   13.504000   18.013000
     35          1           0        9.871000   13.300000   16.812000
     36          1           0        7.721000   15.359000   16.825000
     37          1           0        6.999000   15.243000   15.273000
     38          1           0        8.875000   15.320000   15.415000
 ---------------------------------------------------------------------
                    Distance matrix (angstroms):
                    1          2          3          4          5
     1  C    0.000000
     2  C    1.522767   0.000000
     3  C    2.525165   1.365009   0.000000
     4  C    2.571508   1.445024   2.409598   0.000000
     5  O    3.724925   2.371428   2.781375   1.270006   0.000000
     6  O    2.838918   2.376721   3.592117   1.345267   2.283442
     7  H    1.090577   2.152719   3.392326   2.649337   3.854928
     8  H    1.089636   2.087597   2.825985   3.145710   4.307036
     9  H    1.090377   2.116720   2.692346   3.341667   4.339881
    10  H    2.767901   2.143349   1.079969   3.413270   3.854643
    11  H    3.532416   2.162502   1.080449   2.674275   2.539601
    12  H    3.768149   3.132605   4.210423   1.820686   2.246199
    13  C    6.039570   5.395550   6.217727   4.254878   3.894966
    14  C    6.659329   5.806155   6.541949   4.463091   3.865836
    15  C    7.928548   7.011129   7.643383   5.671672   4.934698
    16  C    6.183915   5.240781   5.966645   3.804798   3.221288
    17  O    5.540924   4.789821   5.700318   3.369474   3.191078
    18  O    6.897675   5.741795   6.203704   4.358779   3.479463
    19  C    7.121165   5.917965   6.265634   4.614585   3.799655
    20  C    6.200524   4.941928   5.145906   3.827451   3.113643
    21  N    7.073671   5.856036   5.896945   4.944227   4.362872
    22  C    6.948749   5.949126   6.125005   5.149723   4.907963
    23  C    7.503931   6.175793   5.876841   5.505040   4.808360
    24  H    4.956986   4.383214   5.285915   3.322719   3.177989
    25  H    6.696297   6.026894   6.716421   5.006124   4.531712
    26  H    6.327872   5.917887   6.888136   4.819662   4.690090
    27  H    8.573092   7.694217   8.294881   6.428591   5.684529
    28  H    8.555661   7.575180   8.166054   6.183434   5.396868
    29  H    7.400181   6.349503   6.858749   5.009207   4.417585
    30  H    8.027815   6.743786   6.927242   5.511151   4.581652
    31  H    6.009997   4.609857   4.600609   3.605391   2.641209
    32  H    5.275944   4.132163   4.567709   2.943199   2.488947
    33  H    7.037822   6.169220   6.567960   5.234481   5.098633
    34  H    7.857924   6.895174   6.984664   6.186261   5.955085
    35  H    6.108883   5.180860   5.328370   4.579826   4.529631
    36  H    8.298197   7.041634   6.731559   6.427810   5.825260
    37  H    8.134565   6.726633   6.379757   5.979039   5.092889
    38  H    6.722225   5.394154   4.960443   4.927768   4.324172
                    6          7          8          9         10
     6  O    0.000000
     7  H    2.450999   0.000000
     8  H    3.319837   1.856740   0.000000
     9  H    3.787184   1.792680   1.754973   0.000000
    10  H    4.497463   3.786515   2.890703   2.594696   0.000000
    11  H    3.978299   4.299839   3.827330   3.740688   1.812217
    12  H    0.945288   3.358289   4.242285   4.685005   5.196296
    13  C    4.055615   5.466628   6.927027   6.504851   7.159493
    14  C    4.245141   6.179806   7.406451   7.278871   7.574250
    15  C    5.516597   7.471471   8.675784   8.520670   8.677357
    16  C    3.529565   5.803328   6.761694   6.953445   7.038733
    17  O    2.723881   5.084684   6.010086   6.423717   6.747119
    18  O    4.384294   6.696130   7.402283   7.648017   7.278061
    19  C    4.669390   7.044864   7.438912   7.949935   7.314025
    20  C    4.095373   6.310189   6.378649   7.035702   6.143715
    21  N    5.206912   7.296378   7.052425   7.928395   6.782317
    22  C    5.180799   7.152224   6.741956   7.888337   6.938962
    23  C    6.070069   7.911635   7.452447   8.230012   6.637997
    24  H    3.136429   4.385718   5.859925   5.425436   6.201157
    25  H    4.987312   6.174494   7.649130   7.022312   7.605171
    26  H    4.350031   5.595603   7.204204   6.809362   7.796597
    27  H    6.326468   8.092237   9.393756   9.071050   9.291539
    28  H    5.998345   8.136098   9.215965   9.222696   9.225819
    29  H    4.776100   7.218349   7.653792   8.311493   7.906426
    30  H    5.695048   8.024802   8.326005   8.816187   7.943872
    31  H    4.205508   6.225158   6.279863   6.719851   5.585797
    32  H    3.042385   5.305524   5.468463   6.169244   5.591020
    33  H    4.989792   7.080475   6.862040   8.043729   7.432308
    34  H    6.221971   8.107392   7.556802   8.787729   7.723757
    35  H    4.678462   6.403147   5.806342   7.034816   6.068874
    36  H    6.910351   8.725088   8.137407   9.049798   7.423836
    37  H    6.605383   8.513540   8.196469   8.806957   7.166550
    38  H    5.642289   7.239026   6.632303   7.387421   5.648605
                   11         12         13         14         15
    11  H    0.000000
    12  H    4.393621   0.000000
    13  C    6.186692   3.542019   0.000000
    14  C    6.333557   3.473076   1.525721   0.000000
    15  C    7.322702   4.712362   2.453964   1.299075   0.000000
    16  C    5.724251   2.633407   2.633476   1.456079   2.329817
    17  O    5.637888   1.780848   3.144835   2.392064   3.415921
    18  O    5.735905   3.540425   3.641984   2.314765   2.630361
    19  C    5.732527   3.884213   4.907500   3.634777   3.950171
    20  C    4.599586   3.537244   5.442427   4.469102   5.075410
    21  N    5.308875   4.748129   6.908391   5.881048   6.387971
    22  C    5.739372   4.826095   7.525188   6.580980   7.219755
    23  C    5.111738   5.743481   7.742997   6.803256   7.258384
    24  H    5.377004   2.798137   1.090239   2.197960   3.357906
    25  H    6.626981   4.541978   1.090537   2.186913   2.644276
    26  H    6.984578   3.869461   1.089764   2.164762   2.959644
    27  H    7.976429   5.585747   2.733591   2.117367   1.080497
    28  H    7.772556   5.121249   3.449240   2.072253   1.079401
    29  H    6.448354   3.934879   5.180242   3.862142   4.179690
    30  H    6.265581   4.941947   5.697115   4.364695   4.416448
    31  H    3.898112   3.757034   5.293331   4.463345   5.058623
    32  H    4.226424   2.505675   4.909023   4.128133   4.971817
    33  H    6.296543   4.538642   7.242221   6.257333   6.895582
    34  H    6.576981   5.894041   8.589691   7.596018   8.163274
    35  H    5.047122   4.515268   7.521946   6.771738   7.564975
    36  H    6.008392   6.594499   8.737919   7.742945   8.158818
    37  H    5.510144   6.196612   7.713371   6.699730   6.982218
    38  H    4.196794   5.475123   7.662454   6.912809   7.514927
                   16         17         18         19         20
    16  C    0.000000
    17  O    1.247697   0.000000
    18  O    1.355494   2.309238   0.000000
    19  C    2.405975   2.833376   1.375924   0.000000
    20  C    3.158620   3.198648   2.479073   1.509631   0.000000
    21  N    4.535465   4.464397   3.758652   2.496897   1.476002
    22  C    5.147693   4.732612   4.661580   3.443326   2.420417
    23  C    5.587532   5.669350   4.679025   3.547671   2.481360
    24  H    2.783492   2.959683   3.860572   4.960954   5.194999
    25  H    3.484990   4.170720   4.265779   5.595395   6.181833
    26  H    3.205972   3.449012   4.377119   5.597848   6.174158
    27  H    3.361480   4.414635   3.637884   4.960660   6.071690
    28  H    2.520462   3.593143   2.429158   3.549167   4.881912
    29  H    2.548984   2.653214   1.941069   1.090258   2.104279
    30  H    3.323976   3.897580   2.068936   1.089581   2.066905
    31  H    3.376159   3.649057   2.623723   2.054088   1.089079
    32  H    2.780157   2.479079   2.605342   2.052797   1.090521
    33  H    4.801570   4.241962   4.485793   3.340449   2.671025
    34  H    6.161831   5.762574   5.595956   4.301054   3.393489
    35  H    5.370303   4.828665   5.062681   4.011078   2.729301
    36  H    6.475090   6.481452   5.558381   4.318347   3.354773
    37  H    5.613233   5.925726   4.520821   3.479292   2.784323
    38  H    5.737799   5.735134   4.994853   4.034480   2.711590
                   21         22         23         24         25
    21  N    0.000000
    22  C    1.419631   0.000000
    23  C    1.495969   2.461442   0.000000
    24  H    6.650851   7.156466   7.454926   0.000000
    25  H    7.650362   8.385792   8.362033   1.892604   0.000000
    26  H    7.609885   8.088864   8.561302   1.619990   1.691244
    27  H    7.388609   8.269631   8.175696   3.774254   2.499921
    28  H    6.045247   6.897078   6.960264   4.261833   3.721102
    29  H    2.796550   3.349472   4.110553   5.252179   5.977017
    30  H    2.562052   3.728568   3.317771   5.844743   6.257723
    31  H    2.123367   3.234530   2.479042   5.021972   5.895909
    32  H    2.263759   2.678325   3.318929   4.509343   5.756710
    33  H    2.094924   1.089886   3.415945   6.920923   8.169409
    34  H    2.116275   1.090022   2.746880   8.242311   9.442260
    35  H    2.069861   1.089794   2.777835   7.005502   8.398073
    36  H    2.041666   2.551592   1.090222   8.455950   9.387447
    37  H    2.113969   3.344981   1.089777   7.552181   8.222728
    38  H    2.093175   2.774419   1.089810   7.240792   8.276673
                   26         27         28         29         30
    26  H    0.000000
    27  H    3.139842   0.000000
    28  H    3.896945   1.805740   0.000000
    29  H    5.687533   5.235496   3.670417   0.000000
    30  H    6.443452   5.333034   3.855455   1.789263   0.000000
    31  H    6.157794   5.955716   4.997736   2.949533   2.392043
    32  H    5.548165   5.984445   4.946183   2.361469   2.929530
    33  H    7.683649   7.970412   6.536167   2.913766   3.788167
    34  H    9.146246   9.210968   7.758893   4.149919   4.393426
    35  H    8.078655   8.601384   7.387507   4.017388   4.445244
    36  H    9.517875   9.095468   7.774856   4.705835   3.996195
    37  H    8.593851   7.827277   6.628700   4.194411   2.963057
    38  H    8.495416   8.412849   7.367042   4.655279   4.015550
                   31         32         33         34         35
    31  H    0.000000
    32  H    1.678303   0.000000
    33  H    3.677025   2.702042   0.000000
    34  H    4.144778   3.760610   1.714987   0.000000
    35  H    3.351132   2.673209   1.760296   1.759084   0.000000
    36  H    3.530087   4.157412   3.538605   2.372452   2.976936
    37  H    2.570163   3.782166   4.167932   3.619576   3.793699
    38  H    2.472277   3.283297   3.778217   3.181507   2.650288
                   36         37         38
    36  H    0.000000
    37  H    1.715647   0.000000
    38  H    1.822454   1.882942   0.000000
 Stoichiometry    C12H21NO4
 Framework group  C1[X(C12H21NO4)]
 Deg. of freedom   108
 Full point group                 C1      NOp   1
 Largest Abelian subgroup         C1      NOp   1
 Largest concise Abelian subgroup C1      NOp   1
                         Standard orientation:                         
 ---------------------------------------------------------------------
 Center     Atomic      Atomic             Coordinates (Angstroms)
 Number     Number       Type             X           Y           Z
 ---------------------------------------------------------------------
      1          6           0       -4.582598   -0.381341    0.618981
      2          6           0       -3.393283   -0.654853   -0.291810
      3          6           0       -3.494763   -1.465027   -1.385688
      4          6           0       -2.103975   -0.074583    0.006625
      5          8           0       -1.191988    0.008323   -0.873330
      6          8           0       -1.929275    0.406071    1.250890
      7          1           0       -4.378794    0.490679    1.241398
      8          1           0       -4.760791   -1.323332    1.136869
      9          1           0       -5.443160   -0.199299   -0.025392
     10          1           0       -4.427068   -1.930356   -1.669608
     11          1           0       -2.671730   -1.687890   -2.049254
     12          1           0       -1.026207    0.685200    1.262030
     13          6           0       -0.290956    3.759390   -0.336300
     14          6           0        1.058855    3.069808   -0.162197
     15          6           0        2.145751    3.632511   -0.597647
     16          6           0        1.225178    1.729071    0.380875
     17          8           0        0.637849    1.305032    1.396741
     18          8           0        2.100512    1.012748   -0.366144
     19          6           0        2.506500   -0.262203   -0.045457
     20          6           0        1.492448   -1.378017   -0.120579
     21          7           0        2.073797   -2.717216    0.096582
     22          6           0        1.678747   -3.311121    1.324003
     23          6           0        1.970789   -3.606202   -1.102174
     24          1           0       -1.138813    3.101256   -0.144939
     25          1           0       -0.301873    4.440615   -1.187818
     26          1           0       -0.484628    4.438707    0.493522
     27          1           0        2.194407    4.566352   -1.138987
     28          1           0        3.115663    3.219619   -0.365492
     29          1           0        2.804871   -0.173376    0.999410
     30          1           0        3.340966   -0.618828   -0.648508
     31          1           0        1.095319   -1.287066   -1.130584
     32          1           0        0.655654   -0.990923    0.461803
     33          1           0        1.885574   -2.672396    2.182552
     34          1           0        2.197536   -4.240026    1.560944
     35          1           0        0.609747   -3.522908    1.317949
     36          1           0        2.474074   -4.517682   -0.778920
     37          1           0        2.620369   -3.213715   -1.884230
     38          1           0        0.909364   -3.746099   -1.305872
 ---------------------------------------------------------------------
 Rotational constants (GHZ):           0.3829495           0.3567112           0.2118257
 Standard basis: 6-311++G(d,p) (5D, 7F)
 There are   538 symmetry adapted cartesian basis functions of A   symmetry.
 There are   521 symmetry adapted basis functions of A   symmetry.
   521 basis functions,   801 primitive gaussians,   538 cartesian basis functions
    66 alpha electrons       66 beta electrons
       nuclear repulsion energy      1273.3714162319 Hartrees.
 NAtoms=   38 NActive=   38 NUniq=   38 SFac= 1.00D+00 NAtFMM=   60 NAOKFM=F Big=F
 Integral buffers will be    131072 words long.
 Raffenetti 2 integral format.
 Two-electron integral symmetry is turned on.
 Nuclear repulsion after empirical dispersion term =     1273.3100687422 Hartrees.
 One-electron integrals computed using PRISM.
 NBasis=   521 RedAO= T EigKep=  2.44D-06  NBF=   521
 NBsUse=   521 1.00D-06 EigRej= -1.00D+00 NBFU=   521
 ExpMin= 3.60D-02 ExpMax= 8.59D+03 ExpMxC= 1.30D+03 IAcc=3 IRadAn=         5 AccDes= 0.00D+00
 Harris functional with IExCor=  402 and IRadAn=       5 diagonalized for initial guess.
 HarFok:  IExCor=  402 AccDes= 0.00D+00 IRadAn=         5 IDoV= 1 UseB2=F ITyADJ=14
 ICtDFT=  3500011 ScaDFX=  1.000000  1.000000  1.000000  1.000000
 FoFCou: FMM=F IPFlag=           0 FMFlag=      100000 FMFlg1=           0
         NFxFlg=           0 DoJE=T BraDBF=F KetDBF=T FulRan=T
         wScrn=  0.000000 ICntrl=       500 IOpCl=  0 I1Cent=   200000004 NGrid=           0
         NMat0=    1 NMatS0=      1 NMatT0=    0 NMatD0=    1 NMtDS0=    0 NMtDT0=    0
 Petite list used in FoFCou.
 Requested convergence on RMS density matrix=1.00D-08 within 128 cycles.
 Requested convergence on MAX density matrix=1.00D-06.
 Requested convergence on             energy=1.00D-06.
 No special actions if energy rises.
 SCF Done:  E(RB3LYP) =  -825.799100417     A.U. after   15 cycles
            NFock= 15  Conv=0.60D-08     -V/T= 2.0039
 SCF density gives NOpUse=  1 NOpAll=  1.

 **********************************************************************

            Population analysis using the SCF density.

 **********************************************************************

 Orbital symmetries:
 BldTbl:  Degeneracy threshold= 1.00D-02
       Occupied  (A) (A) (A) (A) (A) (A) (A) (A) (A) (A) (A) (A)
                 (A) (A) (A) (A) (A) (A) (A) (A) (A) (A) (A) (A)
                 (A) (A) (A) (A) (A) (A) (A) (A) (A) (A) (A) (A)
                 (A) (A) (A) (A) (A) (A) (A) (A) (A) (A) (A) (A)
                 (A) (A) (A) (A) (A) (A) (A) (A) (A) (A) (A) (A)
                 (A) (A) (A) (A) (A) (A)
       Virtual   (A) (A) (A) (A) (A) (A) (A) (A) (A) (A) (A) (A)
                 (A) (A) (A) (A) (A) (A) (A) (A) (A) (A) (A) (A)
                 (A) (A) (A) (A) (A) (A) (A) (A) (A) (A) (A) (A)
                 (A) (A) (A) (A) (A) (A) (A) (A) (A) (A) (A) (A)
                 (A) (A) (A) (A) (A) (A) (A) (A) (A) (A) (A) (A)
                 (A) (A) (A) (A) (A) (A) (A) (A) (A) (A) (A) (A)
                 (A) (A) (A) (A) (A) (A) (A) (A) (A) (A) (A) (A)
                 (A) (A) (A) (A) (A) (A) (A) (A) (A) (A) (A) (A)
                 (A) (A) (A) (A) (A) (A) (A) (A) (A) (A) (A) (A)
                 (A) (A) (A) (A) (A) (A) (A) (A) (A) (A) (A) (A)
                 (A) (A) (A) (A) (A) (A) (A) (A) (A) (A) (A) (A)
                 (A) (A) (A) (A) (A) (A) (A) (A) (A) (A) (A) (A)
                 (A) (A) (A) (A) (A) (A) (A) (A) (A) (A) (A) (A)
                 (A) (A) (A) (A) (A) (A) (A) (A) (A) (A) (A) (A)
                 (A) (A) (A) (A) (A) (A) (A) (A) (A) (A) (A) (A)
                 (A) (A) (A) (A) (A) (A) (A) (A) (A) (A) (A) (A)
                 (A) (A) (A) (A) (A) (A) (A) (A) (A) (A) (A) (A)
                 (A) (A) (A) (A) (A) (A) (A) (A) (A) (A) (A) (A)
                 (A) (A) (A) (A) (A) (A) (A) (A) (A) (A) (A) (A)
                 (A) (A) (A) (A) (A) (A) (A) (A) (A) (A) (A) (A)
                 (A) (A) (A) (A) (A) (A) (A) (A) (A) (A) (A) (A)
                 (A) (A) (A) (A) (A) (A) (A) (A) (A) (A) (A) (A)
                 (A) (A) (A) (A) (A) (A) (A) (A) (A) (A) (A) (A)
                 (A) (A) (A) (A) (A) (A) (A) (A) (A) (A) (A) (A)
                 (A) (A) (A) (A) (A) (A) (A) (A) (A) (A) (A) (A)
                 (A) (A) (A) (A) (A) (A) (A) (A) (A) (A) (A) (A)
                 (A) (A) (A) (A) (A) (A) (A) (A) (A) (A) (A) (A)
                 (A) (A) (A) (A) (A) (A) (A) (A) (A) (A) (A) (A)
                 (A) (A) (A) (A) (A) (A) (A) (A) (A) (A) (A) (A)
                 (A) (A) (A) (A) (A) (A) (A) (A) (A) (A) (A) (A)
                 (A) (A) (A) (A) (A) (A) (A) (A) (A) (A) (A) (A)
                 (A) (A) (A) (A) (A) (A) (A) (A) (A) (A) (A) (A)
                 (A) (A) (A) (A) (A) (A) (A) (A) (A) (A) (A) (A)
                 (A) (A) (A) (A) (A) (A) (A) (A) (A) (A) (A) (A)
                 (A) (A) (A) (A) (A) (A) (A) (A) (A) (A) (A) (A)
                 (A) (A) (A) (A) (A) (A) (A) (A) (A) (A) (A) (A)
                 (A) (A) (A) (A) (A) (A) (A) (A) (A) (A) (A) (A)
                 (A) (A) (A) (A) (A) (A) (A) (A) (A) (A) (A)
 The electronic state is 1-A.
 Alpha  occ. eigenvalues --  -19.17970 -19.16386 -19.12713 -19.10187 -14.30439
 Alpha  occ. eigenvalues --  -10.32488 -10.30570 -10.21720 -10.20242 -10.19951
 Alpha  occ. eigenvalues --  -10.19018 -10.18837 -10.18046 -10.17968 -10.17914
 Alpha  occ. eigenvalues --  -10.17805 -10.17582  -1.12215  -1.10596  -1.03127
 Alpha  occ. eigenvalues --   -0.99423  -0.91747  -0.83964  -0.81974  -0.77001
 Alpha  occ. eigenvalues --   -0.71087  -0.70981  -0.70042  -0.68711  -0.67256
 Alpha  occ. eigenvalues --   -0.62281  -0.59520  -0.56740  -0.55367  -0.51692
 Alpha  occ. eigenvalues --   -0.50531  -0.49579  -0.49274  -0.48642  -0.47878
 Alpha  occ. eigenvalues --   -0.46505  -0.45840  -0.45710  -0.44394  -0.43175
 Alpha  occ. eigenvalues --   -0.42954  -0.42206  -0.41761  -0.41425  -0.40598
 Alpha  occ. eigenvalues --   -0.39904  -0.39670  -0.38321  -0.38029  -0.37854
 Alpha  occ. eigenvalues --   -0.36749  -0.36317  -0.35610  -0.32811  -0.31883
 Alpha  occ. eigenvalues --   -0.30967  -0.29810  -0.27960  -0.27295  -0.26448
 Alpha  occ. eigenvalues --   -0.21044
 Alpha virt. eigenvalues --   -0.06792  -0.05739  -0.01006  -0.00223  -0.00085
 Alpha virt. eigenvalues --    0.01072   0.01198   0.01663   0.01954   0.02400
 Alpha virt. eigenvalues --    0.02652   0.03450   0.03712   0.04004   0.04499
 Alpha virt. eigenvalues --    0.04618   0.04865   0.05001   0.05346   0.05902
 Alpha virt. eigenvalues --    0.06096   0.06873   0.07309   0.07606   0.07808
 Alpha virt. eigenvalues --    0.08246   0.08989   0.09114   0.09444   0.09541
 Alpha virt. eigenvalues --    0.10037   0.10480   0.10680   0.11021   0.11625
 Alpha virt. eigenvalues --    0.11833   0.12095   0.12537   0.12686   0.12802
 Alpha virt. eigenvalues --    0.13212   0.13313   0.13492   0.13616   0.13722
 Alpha virt. eigenvalues --    0.13902   0.14349   0.14715   0.14838   0.14975
 Alpha virt. eigenvalues --    0.15274   0.15360   0.15923   0.15945   0.16069
 Alpha virt. eigenvalues --    0.16501   0.16853   0.17048   0.17293   0.17622
 Alpha virt. eigenvalues --    0.18060   0.18243   0.18465   0.18718   0.19315
 Alpha virt. eigenvalues --    0.19570   0.19841   0.20166   0.20514   0.21082
 Alpha virt. eigenvalues --    0.21087   0.21655   0.22314   0.22443   0.22546
 Alpha virt. eigenvalues --    0.22822   0.22971   0.23320   0.24165   0.24519
 Alpha virt. eigenvalues --    0.24848   0.25063   0.25497   0.26128   0.26438
 Alpha virt. eigenvalues --    0.26689   0.27191   0.27467   0.27949   0.28570
 Alpha virt. eigenvalues --    0.28848   0.29066   0.30011   0.30386   0.30754
 Alpha virt. eigenvalues --    0.31191   0.31532   0.31692   0.32357   0.32552
 Alpha virt. eigenvalues --    0.32768   0.33332   0.34222   0.34430   0.35176
 Alpha virt. eigenvalues --    0.35320   0.35427   0.36197   0.36828   0.37427
 Alpha virt. eigenvalues --    0.37788   0.37957   0.38620   0.39131   0.40156
 Alpha virt. eigenvalues --    0.40190   0.40524   0.40840   0.41339   0.42706
 Alpha virt. eigenvalues --    0.43157   0.43384   0.44043   0.44567   0.45684
 Alpha virt. eigenvalues --    0.46544   0.47407   0.47755   0.48107   0.49173
 Alpha virt. eigenvalues --    0.49861   0.51020   0.51593   0.52350   0.53521
 Alpha virt. eigenvalues --    0.54543   0.54829   0.55028   0.55513   0.56166
 Alpha virt. eigenvalues --    0.56965   0.57769   0.59195   0.59712   0.60247
 Alpha virt. eigenvalues --    0.60865   0.61248   0.62285   0.63194   0.63783
 Alpha virt. eigenvalues --    0.64161   0.64880   0.65587   0.66365   0.66549
 Alpha virt. eigenvalues --    0.66856   0.67397   0.68234   0.69056   0.69421
 Alpha virt. eigenvalues --    0.69631   0.70410   0.70792   0.71461   0.71677
 Alpha virt. eigenvalues --    0.72379   0.72843   0.73535   0.74558   0.74815
 Alpha virt. eigenvalues --    0.74951   0.75496   0.75975   0.76921   0.77021
 Alpha virt. eigenvalues --    0.78144   0.78743   0.80216   0.80681   0.81976
 Alpha virt. eigenvalues --    0.82534   0.84121   0.85573   0.86451   0.87694
 Alpha virt. eigenvalues --    0.88284   0.89192   0.89589   0.90443   0.91146
 Alpha virt. eigenvalues --    0.91641   0.93269   0.94163   0.95598   0.97028
 Alpha virt. eigenvalues --    0.98693   0.99809   1.00773   1.01791   1.03127
 Alpha virt. eigenvalues --    1.05106   1.07083   1.07922   1.09138   1.10270
 Alpha virt. eigenvalues --    1.12565   1.13422   1.15614   1.16770   1.17942
 Alpha virt. eigenvalues --    1.20087   1.21282   1.21904   1.22750   1.23104
 Alpha virt. eigenvalues --    1.24276   1.25386   1.26042   1.28262   1.29943
 Alpha virt. eigenvalues --    1.30551   1.31789   1.32434   1.32874   1.34217
 Alpha virt. eigenvalues --    1.35617   1.37224   1.38265   1.39814   1.39899
 Alpha virt. eigenvalues --    1.41081   1.42743   1.44019   1.45048   1.46158
 Alpha virt. eigenvalues --    1.47066   1.47487   1.49045   1.49404   1.49862
 Alpha virt. eigenvalues --    1.51327   1.52117   1.53393   1.53854   1.55436
 Alpha virt. eigenvalues --    1.56441   1.56727   1.57380   1.58020   1.58904
 Alpha virt. eigenvalues --    1.59331   1.60849   1.62164   1.62497   1.63162
 Alpha virt. eigenvalues --    1.63981   1.64915   1.65173   1.66773   1.67213
 Alpha virt. eigenvalues --    1.67983   1.68524   1.69628   1.69920   1.71193
 Alpha virt. eigenvalues --    1.71726   1.72874   1.74031   1.74637   1.75415
 Alpha virt. eigenvalues --    1.76496   1.77349   1.77881   1.78154   1.78679
 Alpha virt. eigenvalues --    1.79392   1.80867   1.82857   1.83366   1.83823
 Alpha virt. eigenvalues --    1.84164   1.86227   1.86344   1.87435   1.88042
 Alpha virt. eigenvalues --    1.90644   1.91443   1.93697   1.93987   1.94854
 Alpha virt. eigenvalues --    1.96186   1.98669   2.00678   2.01488   2.01768
 Alpha virt. eigenvalues --    2.05075   2.06949   2.07337   2.08088   2.10712
 Alpha virt. eigenvalues --    2.12100   2.12647   2.13472   2.14080   2.15307
 Alpha virt. eigenvalues --    2.16203   2.17081   2.18189   2.19449   2.24805
 Alpha virt. eigenvalues --    2.26486   2.27315   2.27979   2.29799   2.31728
 Alpha virt. eigenvalues --    2.32697   2.33852   2.35925   2.39778   2.43817
 Alpha virt. eigenvalues --    2.44037   2.45225   2.46359   2.47030   2.49666
 Alpha virt. eigenvalues --    2.50494   2.51475   2.52397   2.53157   2.53399
 Alpha virt. eigenvalues --    2.53839   2.55206   2.55545   2.56058   2.57125
 Alpha virt. eigenvalues --    2.58971   2.59450   2.61191   2.61611   2.62006
 Alpha virt. eigenvalues --    2.62923   2.64259   2.65178   2.65524   2.66441
 Alpha virt. eigenvalues --    2.68014   2.68607   2.68820   2.70564   2.71095
 Alpha virt. eigenvalues --    2.72203   2.72489   2.73400   2.74645   2.76218
 Alpha virt. eigenvalues --    2.78272   2.80072   2.81606   2.82345   2.82828
 Alpha virt. eigenvalues --    2.85367   2.85651   2.86395   2.87014   2.89957
 Alpha virt. eigenvalues --    2.91079   2.92528   2.93514   2.95386   2.95740
 Alpha virt. eigenvalues --    2.96401   2.97884   2.99866   3.00713   3.01601
 Alpha virt. eigenvalues --    3.04412   3.05957   3.07053   3.09244   3.10913
 Alpha virt. eigenvalues --    3.12612   3.14112   3.15107   3.16050   3.18903
 Alpha virt. eigenvalues --    3.20412   3.22925   3.23638   3.31756   3.33812
 Alpha virt. eigenvalues --    3.37961   3.40249   3.41592   3.48473   3.50450
 Alpha virt. eigenvalues --    3.54610   3.59421   3.61358   3.63242   3.66104
 Alpha virt. eigenvalues --    3.71963   3.74917   3.75773   3.77705   3.78040
 Alpha virt. eigenvalues --    3.78190   3.79895   3.80077   3.81029   3.84355
 Alpha virt. eigenvalues --    3.86408   3.88208   3.90073   3.93407   3.95200
 Alpha virt. eigenvalues --    4.03351   4.12590   4.14529   4.19211   4.28041
 Alpha virt. eigenvalues --    4.28780   4.30573   4.31817   4.34082   4.86882
 Alpha virt. eigenvalues --    4.94116   5.03366   5.11000   5.15337   5.17358
 Alpha virt. eigenvalues --    5.23415   5.27541   5.38907   5.49623   5.68103
 Alpha virt. eigenvalues --    5.74753   5.90277   5.93895  23.70110  23.70822
 Alpha virt. eigenvalues --   23.84211  23.85507  23.92057  23.94470  23.95821
 Alpha virt. eigenvalues --   23.96125  23.96867  23.99501  24.14040  24.38380
 Alpha virt. eigenvalues --   35.55199  49.90605  49.92568  49.99647  50.00856
          Condensed to atoms (all electrons):
               1          2          3          4          5          6
     1  C    6.347952   0.310037  -0.750258  -0.423638  -0.009947   0.017120
     2  C    0.310037  14.915835   0.495724  -9.477443  -0.022775  -0.260137
     3  C   -0.750258   0.495724   7.041816  -1.293104   0.127660   0.082803
     4  C   -0.423638  -9.477443  -1.293104  17.039633   0.280894   0.115451
     5  O   -0.009947  -0.022775   0.127660   0.280894   8.027659  -0.232381
     6  O    0.017120  -0.260137   0.082803   0.115451  -0.232381   8.189473
     7  H    0.419545   0.070565   0.026649  -0.173762   0.001617   0.001151
     8  H    0.321109  -0.133344  -0.001796   0.157869  -0.002183  -0.004241
     9  H    0.436209  -0.003696   0.024933  -0.097704   0.000555   0.002121
    10  H   -0.014321  -0.146222   0.421187   0.065106   0.004933  -0.000295
    11  H    0.011692   0.038382   0.376325  -0.064958  -0.008608   0.004671
    12  H   -0.038124  -0.003491   0.028040   0.039442   0.044827   0.171895
    13  C   -0.009916  -0.103632   0.010900  -0.021115  -0.022048   0.027664
    14  C   -0.000391  -0.050736  -0.003555   0.162015   0.046520  -0.080003
    15  C    0.000303   0.017925  -0.000537   0.029539   0.012287  -0.019029
    16  C    0.010398  -0.137239  -0.043411   0.019130  -0.027502   0.041722
    17  O    0.001522   0.068159   0.006282  -0.123502  -0.030408   0.057833
    18  O   -0.001031   0.010936   0.002834   0.013269   0.001517  -0.001812
    19  C    0.000267   0.240019   0.009655  -0.230820   0.011598   0.017882
    20  C   -0.008629  -0.296349   0.019056   0.250459   0.017883  -0.009060
    21  N    0.000625   0.003729  -0.009552  -0.037408  -0.000059   0.002628
    22  C    0.005880   0.025252  -0.008362  -0.024034  -0.004824   0.003701
    23  C   -0.001309  -0.021480  -0.000819   0.000944  -0.004516   0.001899
    24  H    0.006546  -0.102195  -0.018146   0.134355   0.002158  -0.022630
    25  H   -0.000010  -0.002308   0.000546  -0.003002  -0.002286   0.004578
    26  H    0.000676   0.013946  -0.000276  -0.003084   0.000951  -0.002868
    27  H   -0.000089  -0.000167   0.000134   0.000871   0.000129  -0.000396
    28  H    0.000044   0.000358  -0.000174  -0.001088   0.000725  -0.000313
    29  H   -0.000357  -0.000804   0.000555  -0.003906  -0.001542   0.000997
    30  H    0.000347   0.004724   0.000296  -0.003635   0.001105   0.000329
    31  H   -0.001333  -0.007905   0.005498   0.053311  -0.017778  -0.007984
    32  H    0.003568  -0.007460  -0.007506  -0.033832  -0.033270   0.016680
    33  H   -0.000801  -0.000874   0.001034   0.006772   0.001126  -0.001750
    34  H    0.000742   0.005118  -0.001025  -0.004060  -0.000367   0.000160
    35  H   -0.000158  -0.008865   0.001807   0.010386   0.000554   0.000567
    36  H   -0.000078  -0.001097  -0.000521   0.000772  -0.000443   0.000087
    37  H   -0.000119  -0.002836   0.000296  -0.000135  -0.000071   0.000167
    38  H    0.000756   0.008281  -0.000498   0.000592  -0.000578  -0.000822
               7          8          9         10         11         12
     1  C    0.419545   0.321109   0.436209  -0.014321   0.011692  -0.038124
     2  C    0.070565  -0.133344  -0.003696  -0.146222   0.038382  -0.003491
     3  C    0.026649  -0.001796   0.024933   0.421187   0.376325   0.028040
     4  C   -0.173762   0.157869  -0.097704   0.065106  -0.064958   0.039442
     5  O    0.001617  -0.002183   0.000555   0.004933  -0.008608   0.044827
     6  O    0.001151  -0.004241   0.002121  -0.000295   0.004671   0.171895
     7  H    0.533095  -0.016393  -0.024418   0.001714  -0.000522  -0.006471
     8  H   -0.016393   0.552872  -0.047782   0.003211  -0.004671   0.001680
     9  H   -0.024418  -0.047782   0.555938   0.000218   0.002265   0.000298
    10  H    0.001714   0.003211   0.000218   0.542953  -0.031500   0.000610
    11  H   -0.000522  -0.004671   0.002265  -0.031500   0.479823   0.000551
    12  H   -0.006471   0.001680   0.000298   0.000610   0.000551   0.342092
    13  C   -0.001666   0.000531  -0.000160   0.000420   0.000809   0.033107
    14  C   -0.004669   0.000931  -0.000309   0.001205  -0.005508   0.061583
    15  C    0.000698  -0.000130   0.000013  -0.000131  -0.001019  -0.025208
    16  C    0.005148   0.000710   0.000109  -0.001084   0.002513  -0.058898
    17  O    0.001367  -0.000490   0.000129   0.000000   0.000446   0.017863
    18  O    0.000392  -0.000079   0.000004  -0.000072  -0.000633  -0.008166
    19  C    0.002159  -0.001370   0.000275  -0.001275   0.012759  -0.028450
    20  C   -0.003313   0.002189  -0.000382   0.000847  -0.005421   0.044069
    21  N   -0.000047  -0.000128   0.000009   0.000096   0.002904  -0.008219
    22  C    0.000265   0.000055   0.000050  -0.000168   0.000701  -0.005356
    23  C   -0.000147   0.000053  -0.000009   0.000044   0.003397   0.002038
    24  H   -0.008574   0.000869   0.000167   0.000172  -0.001770   0.005770
    25  H    0.000151  -0.000018   0.000029   0.000002   0.000071   0.000170
    26  H    0.000612  -0.000047  -0.000027  -0.000006   0.000112  -0.001866
    27  H    0.000001  -0.000002   0.000000   0.000001  -0.000039  -0.000533
    28  H   -0.000032   0.000006   0.000000   0.000002   0.000058   0.000645
    29  H   -0.000009  -0.000006   0.000003  -0.000067   0.000463   0.003605
    30  H    0.000048  -0.000025   0.000005  -0.000001   0.000116  -0.000316
    31  H   -0.000040   0.000071  -0.000030   0.000700  -0.010685   0.001124
    32  H    0.002784  -0.002863  -0.000276  -0.001117   0.007074  -0.027873
    33  H   -0.000071   0.000075  -0.000016   0.000077  -0.000421  -0.000152
    34  H    0.000050  -0.000024   0.000009  -0.000030   0.000001  -0.000437
    35  H   -0.000075   0.000075  -0.000012  -0.000011   0.000667   0.001748
    36  H   -0.000014   0.000014  -0.000001  -0.000012   0.000339   0.000229
    37  H    0.000002   0.000001  -0.000001  -0.000014   0.000448   0.000031
    38  H    0.000007   0.000021   0.000003  -0.000014  -0.001973   0.000009
              13         14         15         16         17         18
     1  C   -0.009916  -0.000391   0.000303   0.010398   0.001522  -0.001031
     2  C   -0.103632  -0.050736   0.017925  -0.137239   0.068159   0.010936
     3  C    0.010900  -0.003555  -0.000537  -0.043411   0.006282   0.002834
     4  C   -0.021115   0.162015   0.029539   0.019130  -0.123502   0.013269
     5  O   -0.022048   0.046520   0.012287  -0.027502  -0.030408   0.001517
     6  O    0.027664  -0.080003  -0.019029   0.041722   0.057833  -0.001812
     7  H   -0.001666  -0.004669   0.000698   0.005148   0.001367   0.000392
     8  H    0.000531   0.000931  -0.000130   0.000710  -0.000490  -0.000079
     9  H   -0.000160  -0.000309   0.000013   0.000109   0.000129   0.000004
    10  H    0.000420   0.001205  -0.000131  -0.001084   0.000000  -0.000072
    11  H    0.000809  -0.005508  -0.001019   0.002513   0.000446  -0.000633
    12  H    0.033107   0.061583  -0.025208  -0.058898   0.017863  -0.008166
    13  C    6.957618   0.757489  -1.061366  -1.025121  -0.013305  -0.064141
    14  C    0.757489  10.675466  -1.841980  -3.801780  -0.067445  -0.788100
    15  C   -1.061366  -1.841980   7.719903   0.730423   0.026420   0.170250
    16  C   -1.025121  -3.801780   0.730423  10.732913   0.403360   0.490909
    17  O   -0.013305  -0.067445   0.026420   0.403360   8.013685  -0.145421
    18  O   -0.064141  -0.788100   0.170250   0.490909  -0.145421   8.220190
    19  C   -0.018635  -0.381195   0.011008  -0.343160  -0.005488   0.052984
    20  C    0.038643   0.313435  -0.058516   0.182287  -0.004104   0.071928
    21  N    0.002045  -0.004771   0.000062  -0.032425   0.003958  -0.040524
    22  C    0.000095   0.010431   0.000003  -0.004593   0.000952  -0.016184
    23  C    0.002902  -0.004071  -0.003539   0.005530   0.001577  -0.019761
    24  H    0.408506  -0.019468  -0.005594  -0.070076  -0.002603  -0.002020
    25  H    0.447708  -0.056950  -0.021969  -0.006777   0.001335  -0.003400
    26  H    0.341643   0.013963   0.046362  -0.035205  -0.002419  -0.002725
    27  H   -0.047776  -0.162422   0.459142   0.095109  -0.000922   0.004787
    28  H    0.052485   0.136201   0.264541  -0.074001   0.002270  -0.030072
    29  H   -0.003640  -0.044419   0.015951   0.006123   0.003761  -0.031788
    30  H    0.001067   0.024729  -0.007867  -0.030413  -0.004478  -0.073606
    31  H   -0.012493   0.010779   0.030610  -0.005144  -0.004540   0.035455
    32  H   -0.015228  -0.248987   0.034002  -0.020015   0.006908   0.039762
    33  H   -0.000706   0.002531   0.000758  -0.000877  -0.001355   0.001636
    34  H   -0.000202  -0.000610   0.000434   0.001114  -0.000236   0.000452
    35  H    0.000728   0.002553  -0.001308  -0.001227   0.000067  -0.000617
    36  H    0.000196   0.000852  -0.000422   0.001881   0.000060  -0.000891
    37  H    0.000385  -0.001062  -0.001040   0.003524   0.000198  -0.002209
    38  H   -0.000650   0.000831   0.001012  -0.005300  -0.000404   0.002419
              19         20         21         22         23         24
     1  C    0.000267  -0.008629   0.000625   0.005880  -0.001309   0.006546
     2  C    0.240019  -0.296349   0.003729   0.025252  -0.021480  -0.102195
     3  C    0.009655   0.019056  -0.009552  -0.008362  -0.000819  -0.018146
     4  C   -0.230820   0.250459  -0.037408  -0.024034   0.000944   0.134355
     5  O    0.011598   0.017883  -0.000059  -0.004824  -0.004516   0.002158
     6  O    0.017882  -0.009060   0.002628   0.003701   0.001899  -0.022630
     7  H    0.002159  -0.003313  -0.000047   0.000265  -0.000147  -0.008574
     8  H   -0.001370   0.002189  -0.000128   0.000055   0.000053   0.000869
     9  H    0.000275  -0.000382   0.000009   0.000050  -0.000009   0.000167
    10  H   -0.001275   0.000847   0.000096  -0.000168   0.000044   0.000172
    11  H    0.012759  -0.005421   0.002904   0.000701   0.003397  -0.001770
    12  H   -0.028450   0.044069  -0.008219  -0.005356   0.002038   0.005770
    13  C   -0.018635   0.038643   0.002045   0.000095   0.002902   0.408506
    14  C   -0.381195   0.313435  -0.004771   0.010431  -0.004071  -0.019468
    15  C    0.011008  -0.058516   0.000062   0.000003  -0.003539  -0.005594
    16  C   -0.343160   0.182287  -0.032425  -0.004593   0.005530  -0.070076
    17  O   -0.005488  -0.004104   0.003958   0.000952   0.001577  -0.002603
    18  O    0.052984   0.071928  -0.040524  -0.016184  -0.019761  -0.002020
    19  C    8.495331  -3.070961   0.493538   0.162205   0.296754  -0.015049
    20  C   -3.070961  10.555035  -0.917563  -0.461116  -0.699132   0.003680
    21  N    0.493538  -0.917563   7.243086   0.350776   0.438368   0.000475
    22  C    0.162205  -0.461116   0.350776   5.196181  -0.086667   0.000017
    23  C    0.296754  -0.699132   0.438368  -0.086667   5.203182  -0.000050
    24  H   -0.015049   0.003680   0.000475   0.000017  -0.000050   0.577045
    25  H    0.000059  -0.000271  -0.000166   0.000000  -0.000038   0.002705
    26  H   -0.001832   0.000507   0.000009   0.000025  -0.000007  -0.059165
    27  H    0.002434  -0.001417  -0.000040  -0.000052  -0.000119   0.004670
    28  H    0.010722  -0.009219   0.001319   0.000827   0.001174  -0.002358
    29  H    0.337901  -0.011909   0.013883  -0.018870   0.017943   0.000848
    30  H    0.378630  -0.028813   0.020343   0.010011  -0.016403  -0.000003
    31  H   -0.489849   0.919671  -0.202153  -0.022726  -0.073801   0.003301
    32  H    0.242782  -0.078780   0.021399  -0.031401   0.024903  -0.002054
    33  H    0.005594   0.004363  -0.042483   0.403110   0.010174   0.000135
    34  H    0.010503   0.010950  -0.053787   0.411128  -0.007947  -0.000014
    35  H   -0.073531   0.128271  -0.176145   0.397579  -0.020730  -0.000068
    36  H    0.006130   0.007385  -0.071561   0.002759   0.401896   0.000006
    37  H    0.032118  -0.056454  -0.024381   0.011854   0.421093  -0.000123
    38  H   -0.068533   0.123435  -0.152822  -0.016052   0.394859   0.000231
              25         26         27         28         29         30
     1  C   -0.000010   0.000676  -0.000089   0.000044  -0.000357   0.000347
     2  C   -0.002308   0.013946  -0.000167   0.000358  -0.000804   0.004724
     3  C    0.000546  -0.000276   0.000134  -0.000174   0.000555   0.000296
     4  C   -0.003002  -0.003084   0.000871  -0.001088  -0.003906  -0.003635
     5  O   -0.002286   0.000951   0.000129   0.000725  -0.001542   0.001105
     6  O    0.004578  -0.002868  -0.000396  -0.000313   0.000997   0.000329
     7  H    0.000151   0.000612   0.000001  -0.000032  -0.000009   0.000048
     8  H   -0.000018  -0.000047  -0.000002   0.000006  -0.000006  -0.000025
     9  H    0.000029  -0.000027   0.000000   0.000000   0.000003   0.000005
    10  H    0.000002  -0.000006   0.000001   0.000002  -0.000067  -0.000001
    11  H    0.000071   0.000112  -0.000039   0.000058   0.000463   0.000116
    12  H    0.000170  -0.001866  -0.000533   0.000645   0.003605  -0.000316
    13  C    0.447708   0.341643  -0.047776   0.052485  -0.003640   0.001067
    14  C   -0.056950   0.013963  -0.162422   0.136201  -0.044419   0.024729
    15  C   -0.021969   0.046362   0.459142   0.264541   0.015951  -0.007867
    16  C   -0.006777  -0.035205   0.095109  -0.074001   0.006123  -0.030413
    17  O    0.001335  -0.002419  -0.000922   0.002270   0.003761  -0.004478
    18  O   -0.003400  -0.002725   0.004787  -0.030072  -0.031788  -0.073606
    19  C    0.000059  -0.001832   0.002434   0.010722   0.337901   0.378630
    20  C   -0.000271   0.000507  -0.001417  -0.009219  -0.011909  -0.028813
    21  N   -0.000166   0.000009  -0.000040   0.001319   0.013883   0.020343
    22  C    0.000000   0.000025  -0.000052   0.000827  -0.018870   0.010011
    23  C   -0.000038  -0.000007  -0.000119   0.001174   0.017943  -0.016403
    24  H    0.002705  -0.059165   0.004670  -0.002358   0.000848  -0.000003
    25  H    0.547979  -0.052664  -0.003298   0.004463  -0.000252   0.000049
    26  H   -0.052664   0.578260   0.001402  -0.000882  -0.000226  -0.000139
    27  H   -0.003298   0.001402   0.535762  -0.045586   0.000160  -0.000217
    28  H    0.004463  -0.000882  -0.045586   0.544898  -0.004344  -0.000201
    29  H   -0.000252  -0.000226   0.000160  -0.004344   0.614954  -0.048685
    30  H    0.000049  -0.000139  -0.000217  -0.000201  -0.048685   0.576303
    31  H   -0.000518  -0.000156   0.000812  -0.003219   0.011071  -0.023964
    32  H   -0.000542  -0.001211   0.001352  -0.004284  -0.037972   0.027207
    33  H   -0.000019   0.000027   0.000028  -0.000134  -0.003974  -0.001571
    34  H   -0.000001   0.000003   0.000002  -0.000024  -0.000933  -0.000974
    35  H    0.000020  -0.000011  -0.000013   0.000012   0.001543   0.004482
    36  H   -0.000001  -0.000000  -0.000006   0.000052   0.001257  -0.001741
    37  H    0.000014   0.000005  -0.000002   0.000098  -0.001443  -0.001903
    38  H   -0.000021  -0.000003   0.000006  -0.000096   0.001558   0.002342
              31         32         33         34         35         36
     1  C   -0.001333   0.003568  -0.000801   0.000742  -0.000158  -0.000078
     2  C   -0.007905  -0.007460  -0.000874   0.005118  -0.008865  -0.001097
     3  C    0.005498  -0.007506   0.001034  -0.001025   0.001807  -0.000521
     4  C    0.053311  -0.033832   0.006772  -0.004060   0.010386   0.000772
     5  O   -0.017778  -0.033270   0.001126  -0.000367   0.000554  -0.000443
     6  O   -0.007984   0.016680  -0.001750   0.000160   0.000567   0.000087
     7  H   -0.000040   0.002784  -0.000071   0.000050  -0.000075  -0.000014
     8  H    0.000071  -0.002863   0.000075  -0.000024   0.000075   0.000014
     9  H   -0.000030  -0.000276  -0.000016   0.000009  -0.000012  -0.000001
    10  H    0.000700  -0.001117   0.000077  -0.000030  -0.000011  -0.000012
    11  H   -0.010685   0.007074  -0.000421   0.000001   0.000667   0.000339
    12  H    0.001124  -0.027873  -0.000152  -0.000437   0.001748   0.000229
    13  C   -0.012493  -0.015228  -0.000706  -0.000202   0.000728   0.000196
    14  C    0.010779  -0.248987   0.002531  -0.000610   0.002553   0.000852
    15  C    0.030610   0.034002   0.000758   0.000434  -0.001308  -0.000422
    16  C   -0.005144  -0.020015  -0.000877   0.001114  -0.001227   0.001881
    17  O   -0.004540   0.006908  -0.001355  -0.000236   0.000067   0.000060
    18  O    0.035455   0.039762   0.001636   0.000452  -0.000617  -0.000891
    19  C   -0.489849   0.242782   0.005594   0.010503  -0.073531   0.006130
    20  C    0.919671  -0.078780   0.004363   0.010950   0.128271   0.007385
    21  N   -0.202153   0.021399  -0.042483  -0.053787  -0.176145  -0.071561
    22  C   -0.022726  -0.031401   0.403110   0.411128   0.397579   0.002759
    23  C   -0.073801   0.024903   0.010174  -0.007947  -0.020730   0.401896
    24  H    0.003301  -0.002054   0.000135  -0.000014  -0.000068   0.000006
    25  H   -0.000518  -0.000542  -0.000019  -0.000001   0.000020  -0.000001
    26  H   -0.000156  -0.001211   0.000027   0.000003  -0.000011  -0.000000
    27  H    0.000812   0.001352   0.000028   0.000002  -0.000013  -0.000006
    28  H   -0.003219  -0.004284  -0.000134  -0.000024   0.000012   0.000052
    29  H    0.011071  -0.037972  -0.003974  -0.000933   0.001543   0.001257
    30  H   -0.023964   0.027207  -0.001571  -0.000974   0.004482  -0.001741
    31  H    0.665745  -0.115455   0.008929   0.002795  -0.006840   0.002620
    32  H   -0.115455   1.045048  -0.012337  -0.013154   0.019260  -0.006651
    33  H    0.008929  -0.012337   0.563860  -0.029087  -0.044798   0.001266
    34  H    0.002795  -0.013154  -0.029087   0.598776  -0.064386   0.003531
    35  H   -0.006840   0.019260  -0.044798  -0.064386   0.689653  -0.000442
    36  H    0.002620  -0.006651   0.001266   0.003531  -0.000442   0.591852
    37  H   -0.016539   0.013486  -0.003578   0.000392  -0.001446  -0.032991
    38  H    0.020735  -0.013477  -0.000906  -0.003093   0.031965  -0.038863
              37         38
     1  C   -0.000119   0.000756
     2  C   -0.002836   0.008281
     3  C    0.000296  -0.000498
     4  C   -0.000135   0.000592
     5  O   -0.000071  -0.000578
     6  O    0.000167  -0.000822
     7  H    0.000002   0.000007
     8  H    0.000001   0.000021
     9  H   -0.000001   0.000003
    10  H   -0.000014  -0.000014
    11  H    0.000448  -0.001973
    12  H    0.000031   0.000009
    13  C    0.000385  -0.000650
    14  C   -0.001062   0.000831
    15  C   -0.001040   0.001012
    16  C    0.003524  -0.005300
    17  O    0.000198  -0.000404
    18  O   -0.002209   0.002419
    19  C    0.032118  -0.068533
    20  C   -0.056454   0.123435
    21  N   -0.024381  -0.152822
    22  C    0.011854  -0.016052
    23  C    0.421093   0.394859
    24  H   -0.000123   0.000231
    25  H    0.000014  -0.000021
    26  H    0.000005  -0.000003
    27  H   -0.000002   0.000006
    28  H    0.000098  -0.000096
    29  H   -0.001443   0.001558
    30  H   -0.001903   0.002342
    31  H   -0.016539   0.020735
    32  H    0.013486  -0.013477
    33  H   -0.003578  -0.000906
    34  H    0.000392  -0.003093
    35  H   -0.001446   0.031965
    36  H   -0.032991  -0.038863
    37  H    0.555300  -0.032763
    38  H   -0.032763   0.622329
 Mulliken charges:
               1
     1  C   -0.634829
     2  C    0.562068
     3  C   -0.544491
     4  C   -0.360583
     5  O   -0.163113
     6  O   -0.117858
     7  H    0.172203
     8  H    0.173247
     9  H    0.151479
    10  H    0.152842
    11  H    0.191138
    12  H    0.412136
    13  C   -0.663143
    14  C    1.346916
    15  C   -0.521992
    16  C   -1.008654
    17  O   -0.211031
    18  O    0.113528
    19  C   -0.103160
    20  C   -0.972683
    21  N    0.174984
    22  C   -0.293452
    23  C   -0.268187
    24  H    0.180304
    25  H    0.144629
    26  H    0.166317
    27  H    0.156293
    28  H    0.155129
    29  H    0.182570
    30  H    0.192822
    31  H    0.249925
    32  H    0.209530
    33  H    0.134414
    34  H    0.134231
    35  H    0.108745
    36  H    0.132551
    37  H    0.139696
    38  H    0.125474
 Sum of Mulliken charges =  -0.00000
 Mulliken charges with hydrogens summed into heavy atoms:
               1
     1  C   -0.137899
     2  C    0.562068
     3  C   -0.200510
     4  C   -0.360583
     5  O   -0.163113
     6  O    0.294278
    13  C   -0.171892
    14  C    1.346916
    15  C   -0.210570
    16  C   -1.008654
    17  O   -0.211031
    18  O    0.113528
    19  C    0.272232
    20  C   -0.513228
    21  N    0.174984
    22  C    0.083938
    23  C    0.129534
 DipInt: DoE/N= T F RetVal/Mat= T F Init=T NMatP=  1 IDeriv=0 Min/MaxMlt=  0  4
 Entering OneElI...
 OneElI was handed 25769067012 working-precision words.
 Multipole integrals L=0 to 4 MinM= 0 MaxM= 0.
 Requested accuracy = 0.1000D-12
 ShPair: Thresh= 1.00D-13 NBox=     0 BxSize= 0.00D+00 RnKept= 1.80D+01
         NSMCal=                21528 NSMKep=               17909
 PrmmSu-InSpLW:  IPartL=    0 NPrtUS=    1 NPrtUL=    1 DoSpLW=F IThBeg=    0 IThEnd=    0 NThAct=    1.
 PrsmSu:  NPrtUS=   1 ThrOK=F IAlg=1 NPAlg=1 LenDen=           0 ISkipM=0 DoSpLW=F IThBeg=    0 IThEnd=    0.
 Prism:   IPart=     0 DynPar=F LinDyn=F Incr=         179.
 PRISM was handed 25767962122 working-precision words and 17909 shell-pairs
 IPart=  0 NShTot=       17909 NBatch=         146 AvBLen=       122.7
 PrsmSu-ThDecC:  IPartSL=    0    0 NPrtUSL=    1    1 IThBeg=    0 IThEnd=    0 CPU=   -1 GPU=   -1 NThAct=    1.
 PrSmSu:  NxtVal=            180.
 Electronic moments (au):
       -132.00000000         -0.27482384          0.02333087         -0.44258460
      -2564.32260500      -2424.65908103       -452.09146001          2.67990571
          0.15225150         -0.79651125       7356.31962714      -1031.42351769
       -118.53419763      -5075.34288236       2514.33470753        339.44194258
        249.62382998        600.02396117        795.10753650        659.98075816
    -111372.06196357    -106738.10810407      -4062.77455708     -10350.76408170
       1919.28475092       9144.20782800       5139.26951763       -966.85180425
       -337.43583982     -30216.12982832      -8905.09134068      -8973.80202028
      -1732.27608213        986.34729692        767.87480406
 Electronic spatial extent (au):  <R**2>=           5441.0731
 DipInt: DoE/N= F T RetVal/Mat= T F Init=T NMatP=  1 IDeriv=0 Min/MaxMlt=  0  4
 Nuclear    moments (au):
        132.00000000         -0.00000000         -0.00000000          0.00000000
       2494.38882646       2356.68714674        370.25470634          0.00000000
          0.00000000         -0.00000000      -7413.78833416       1082.91761224
        116.45239401       5089.19096767      -2519.67193198       -354.94522709
       -240.92772443       -615.20296282       -816.43815186       -669.41123799
     102589.97323173      98434.27119908       2451.84254250      10623.92193736
      -1869.51852563      -9179.59874609      -5300.31733894        975.05084821
        343.90490473      27331.31008452       7103.86397876       7263.89737391
       1813.58280878      -1035.45318766       -776.08284888
 Total      moments (au):
         -0.00000000         -0.27482384          0.02333087         -0.44258460
        -69.93377854        -67.97193429        -81.83675367          2.67990571
          0.15225150         -0.79651125        -57.46870702         51.49409455
         -2.08180362         13.84808531         -5.33722445        -15.50328451
          8.69610556        -15.17900164        -21.33061536         -9.43047982
      -8782.08873183      -8303.83690499      -1610.93201458        273.15785565
         49.76622529        -35.39091809       -161.04782131          8.19904395
          6.46906491      -2884.81974380      -1801.22736191      -1709.90464637
         81.30672665        -49.10589074         -8.20804482
 Traceless Quadrup. (au):
          3.31371030          5.27555454         -8.58926484          2.67990571
          0.15225150         -0.79651125
 Charge=             -0.0000 electrons
 Dipole moment (field-independent basis, Debye):
    X=             -0.6985    Y=              0.0593    Z=             -1.1249  Tot=              1.3255
 Quadrupole moment (field-independent basis, Debye-Ang):
   XX=            -94.0633   YY=            -91.4246   ZZ=           -110.0732
   XY=              3.6046   XZ=              0.2048   YZ=             -1.0713
 Traceless Quadrupole moment (field-independent basis, Debye-Ang):
   XX=              4.4571   YY=              7.0958   ZZ=            -11.5529
   XY=              3.6046   XZ=              0.2048   YZ=             -1.0713
 Octapole moment (field-independent basis, Debye-Ang**2):
  XXX=            -40.9040  YYY=             36.6515  ZZZ=             -1.4817  XYY=              9.8565
  XXY=             -3.7988  XXZ=            -11.0346  XZZ=              6.1896  YZZ=            -10.8038
  YYZ=            -15.1823  XYZ=             -6.7123
 Hexadecapole moment (field-independent basis, Debye-Ang**3):
 XXXX=          -3307.7557 YYYY=          -3127.6232 ZZZZ=           -606.7542 XXXY=            102.8843
 XXXZ=             18.7443 YYYX=            -13.3299 YYYZ=            -60.6583 ZZZX=              3.0882
 ZZZY=              2.4366 XXYY=          -1086.5614 XXZZ=           -678.4286 YYZZ=           -644.0321
 XXYZ=             30.6240 YYXZ=            -18.4956 ZZXY=             -3.0915
 N-N= 1.273310068742D+03 E-N=-4.475380633706D+03  KE= 8.225856953384D+02
 Entering OneElI...
 OneElI was handed 25769228497 working-precision words.
 Calculate electrostatic properties
    NBasis =   521  MinDer = 0  MaxDer = 0
    NGrid  =    38  NMatD  =   1
 Requested accuracy = 0.1000D-12
 ShPair: Thresh= 1.00D-13 NBox=     0 BxSize= 0.00D+00 RnKept= 1.80D+01
         NSMCal=                21528 NSMKep=               16464
 PrmmSu-InSpLW:  IPartL=    0 NPrtUS=   48 NPrtUL=    1 DoSpLW=F IThBeg=    0 IThEnd=   47 NThAct=   48.
 PrsmSu:  NPrtUS=  48 ThrOK=T IAlg=1 NPAlg=1 LenDen=           0 ISkipM=0 DoSpLW=F IThBeg=    0 IThEnd=   47.
 Prism:   IPart=     0 DynPar=F LinDyn=F Incr=         130.
 PRISM was handed   536541394 working-precision words and 16464 shell-pairs
 PRISM was handed   536541394 working-precision words and 16464 shell-pairs
 PRISM was handed   536541394 working-precision words and 16464 shell-pairs
 PRISM was handed   536541394 working-precision words and 16464 shell-pairs
 PRISM was handed   536541394 working-precision words and 16464 shell-pairs
 PRISM was handed   536541394 working-precision words and 16464 shell-pairs
 PRISM was handed   536541394 working-precision words and 16464 shell-pairs
 PRISM was handed   536541394 working-precision words and 16464 shell-pairs
 PRISM was handed   536541394 working-precision words and 16464 shell-pairs
 PRISM was handed   536541394 working-precision words and 16464 shell-pairs
 PRISM was handed   536541394 working-precision words and 16464 shell-pairs
 PRISM was handed   536541394 working-precision words and 16464 shell-pairs
 PRISM was handed   536541394 working-precision words and 16464 shell-pairs
 PRISM was handed   536541394 working-precision words and 16464 shell-pairs
 PRISM was handed   536541394 working-precision words and 16464 shell-pairs
 PRISM was handed   536541394 working-precision words and 16464 shell-pairs
 PRISM was handed   536541394 working-precision words and 16464 shell-pairs
 PRISM was handed   536541394 working-precision words and 16464 shell-pairs
 PRISM was handed   536541394 working-precision words and 16464 shell-pairs
 PRISM was handed   536541394 working-precision words and 16464 shell-pairs
 PRISM was handed   536541394 working-precision words and 16464 shell-pairs
 PRISM was handed   536541394 working-precision words and 16464 shell-pairs
 PRISM was handed   536541394 working-precision words and 16464 shell-pairs
 PRISM was handed   536541394 working-precision words and 16464 shell-pairs
 PRISM was handed   536541394 working-precision words and 16464 shell-pairs
 PRISM was handed   536541394 working-precision words and 16464 shell-pairs
 PRISM was handed   536541394 working-precision words and 16464 shell-pairs
 PRISM was handed   536541394 working-precision words and 16464 shell-pairs
 PRISM was handed   536541394 working-precision words and 16464 shell-pairs
 PRISM was handed   536541394 working-precision words and 16464 shell-pairs
 PRISM was handed   536541394 working-precision words and 16464 shell-pairs
 PRISM was handed   536541394 working-precision words and 16464 shell-pairs
[...]
 **** Fit       0.003890
 **** Fit       0.004382
 **** Fit       0.004777
 **** Fit       0.004963
 **** Fit       0.004817
 **** Fit       0.004265
 **** Fit       0.003333
 **** Fit       0.002162
 **** Fit       0.000956
 **** Fit      -0.000096
 **** Fit      -0.000879
 **** Fit       0.003909
 **** Fit       0.004597
 **** Fit       0.005312
 **** Fit       0.005954
 **** Fit       0.006363
 **** Fit       0.006349
 **** Fit       0.005769
 **** Fit       0.004635
 **** Fit       0.003139
 **** Fit       0.001575
 **** Fit       0.000204
 **** Fit      -0.000819
 **** Fit      -0.001463
 **** Fit       0.004426
 **** Fit       0.005292
 **** Fit       0.006235
 **** Fit       0.007143
 **** Fit       0.007812
 **** Fit       0.007965
 **** Fit       0.007373
 **** Fit       0.006021
 **** Fit       0.004170
 **** Fit       0.002225
 **** Fit       0.000532
 **** Fit      -0.000725
 **** Fit      -0.001521
 **** Fit       0.004023
 **** Fit       0.004877
 **** Fit       0.005881
 **** Fit       0.007002
 **** Fit       0.008126
 **** Fit       0.009014
 **** Fit       0.009312
 **** Fit       0.008700
 **** Fit       0.007134
 **** Fit       0.004952
 **** Fit       0.002672
 **** Fit       0.000712
 **** Fit      -0.000728
 **** Fit      -0.001634
 **** Fit      -0.002097
 **** Fit       0.004313
 **** Fit       0.005225
 **** Fit       0.006295
 **** Fit       0.007491
 **** Fit       0.008700
 **** Fit       0.009670
 **** Fit       0.010009
 **** Fit       0.009345
 **** Fit       0.007620
 **** Fit       0.005223
 **** Fit       0.002739
 **** Fit       0.000627
 **** Fit      -0.000909
 **** Fit      -0.001864
 **** Fit      -0.002339
 **** Fit       0.004548
 **** Fit       0.005471
 **** Fit       0.006530
 **** Fit       0.007682
 **** Fit       0.008813
 **** Fit       0.009680
 **** Fit       0.009914
 **** Fit       0.009166
 **** Fit       0.007389
 **** Fit       0.004959
 **** Fit       0.002449
 **** Fit       0.000307
 **** Fit      -0.001249
 **** Fit      -0.002200
 **** Fit      -0.002648
 **** Fit       0.004752
 **** Fit       0.005659
 **** Fit       0.006659
 **** Fit       0.007694
 **** Fit       0.008640
 **** Fit       0.009281
 **** Fit       0.009320
 **** Fit       0.008492
 **** Fit       0.006768
 **** Fit       0.004455
 **** Fit       0.002030
 **** Fit      -0.000079
 **** Fit      -0.001625
 **** Fit      -0.002554
 **** Fit      -0.002960
 **** Fit       0.004960
 **** Fit       0.005855
 **** Fit       0.006802
 **** Fit       0.007725
 **** Fit       0.008493
 **** Fit       0.008919
 **** Fit       0.008780
 **** Fit       0.007899
 **** Fit       0.006263
 **** Fit       0.004085
 **** Fit       0.001749
 **** Fit      -0.000337
 **** Fit      -0.001884
 **** Fit      -0.002802
 **** Fit      -0.003174
 **** Fit       0.005200
 **** Fit       0.006113
 **** Fit       0.007058
 **** Fit       0.007946
 **** Fit       0.008635
 **** Fit       0.008946
 **** Fit       0.008695
 **** Fit       0.007759
 **** Fit       0.006143
 **** Fit       0.004018
 **** Fit       0.001718
 **** Fit      -0.000362
 **** Fit      -0.001914
 **** Fit      -0.002832
 **** Fit      -0.003193
 **** Fit       0.005475
 **** Fit       0.006447
 **** Fit       0.007460
 **** Fit       0.008416
 **** Fit       0.009157
 **** Fit       0.009478
 **** Fit       0.009174
 **** Fit       0.008136
 **** Fit       0.006419
 **** Fit       0.004241
 **** Fit       0.001938
 **** Fit      -0.000122
 **** Fit      -0.001659
 **** Fit      -0.002578
 **** Fit      -0.002956
 **** Fit       0.005759
 **** Fit       0.006818
 **** Fit       0.007950
 **** Fit       0.009055
 **** Fit       0.009956
 **** Fit       0.010394
 **** Fit       0.010100
 **** Fit       0.008941
 **** Fit       0.007047
 **** Fit       0.004745
 **** Fit       0.002418
 **** Fit       0.000395
 **** Fit      -0.001109
 **** Fit      -0.002034
 **** Fit       0.006003
 **** Fit       0.007146
 **** Fit       0.008399
 **** Fit       0.009666
 **** Fit       0.010753
 **** Fit       0.011355
 **** Fit       0.011131
 **** Fit       0.009916
 **** Fit       0.007890
 **** Fit       0.005489
 **** Fit       0.003148
 **** Fit       0.001167
 **** Fit      -0.000307
 **** Fit      -0.001253
 **** Fit       0.006149
 **** Fit       0.007340
 **** Fit       0.008661
 **** Fit       0.010019
 **** Fit       0.011216
 **** Fit       0.011929
 **** Fit       0.011795
 **** Fit       0.010638
 **** Fit       0.008646
 **** Fit       0.006283
 **** Fit       0.004004
 **** Fit       0.002085
 **** Fit       0.000638
 **** Fit      -0.000341
 **** Fit       0.006160
 **** Fit       0.007338
 **** Fit       0.008641
 **** Fit       0.009975
 **** Fit       0.011150
 **** Fit       0.011866
 **** Fit       0.011800
 **** Fit       0.010796
 **** Fit       0.009019
 **** Fit       0.006877
 **** Fit       0.004778
 **** Fit       0.002979
 **** Fit       0.001579
 **** Fit       0.000578
 **** Fit       0.006026
 **** Fit       0.007130
 **** Fit       0.008333
 **** Fit       0.009542
 **** Fit       0.010586
 **** Fit       0.011219
 **** Fit       0.011190
 **** Fit       0.010385
 **** Fit       0.008929
 **** Fit       0.007128
 **** Fit       0.005310
 **** Fit       0.003697
 **** Fit       0.002386
 **** Fit       0.001393
 **** Fit       0.006753
 **** Fit       0.007805
 **** Fit       0.008836
 **** Fit       0.009702
 **** Fit       0.010218
 **** Fit       0.010209
 **** Fit       0.009601
 **** Fit       0.008478
 **** Fit       0.007050
 **** Fit       0.005554
 **** Fit       0.004167
 **** Fit       0.002986
 **** Fit       0.007152
 **** Fit       0.007996
 **** Fit       0.008687
 **** Fit       0.009093
 **** Fit       0.009099
 **** Fit       0.008658
 **** Fit       0.007825
 **** Fit       0.006733
 **** Fit       0.005545
 **** Fit       0.004394
 **** Fit       0.003364
 **** Fit       0.007132
 **** Fit       0.007674
 **** Fit       0.007993
 **** Fit       0.008012
 **** Fit       0.007702
 **** Fit       0.007097
 **** Fit       0.006279
 **** Fit       0.005355
 **** Fit       0.004421
 **** Fit       0.006736
 **** Fit       0.006988
 **** Fit       0.007018
 **** Fit       0.006806
 **** Fit       0.006371
 **** Fit       0.005763
 **** Fit       0.003388
 **** Fit       0.003201
 **** Fit       0.002819
 **** Fit       0.002266
 **** Fit       0.001607
 **** Fit       0.003867
 **** Fit       0.004105
 **** Fit       0.004174
 **** Fit       0.004009
 **** Fit       0.003577
 **** Fit       0.002902
 **** Fit       0.002068
 **** Fit       0.001197
 **** Fit       0.000403
 **** Fit       0.004068
 **** Fit       0.004530
 **** Fit       0.004895
 **** Fit       0.005065
 **** Fit       0.004943
 **** Fit       0.004469
 **** Fit       0.003665
 **** Fit       0.002642
 **** Fit       0.001561
 **** Fit       0.000574
 **** Fit      -0.000218
 **** Fit       0.004589
 **** Fit       0.005175
 **** Fit       0.005666
 **** Fit       0.005941
 **** Fit       0.005866
 **** Fit       0.005353
 **** Fit       0.004420
 **** Fit       0.003207
 **** Fit       0.001918
 **** Fit       0.000746
 **** Fit      -0.000190
 **** Fit       0.004362
 **** Fit       0.005041
 **** Fit       0.005719
 **** Fit       0.006304
 **** Fit       0.006652
 **** Fit       0.006603
 **** Fit       0.006043
 **** Fit       0.004990
 **** Fit       0.003610
 **** Fit       0.002148
 **** Fit       0.000827
 **** Fit      -0.000219
 **** Fit      -0.000951
 **** Fit       0.004664
 **** Fit       0.005385
 **** Fit       0.006102
 **** Fit       0.006715
 **** Fit       0.007074
 **** Fit       0.007005
 **** Fit       0.006385
 **** Fit       0.005236
 **** Fit       0.003743
 **** Fit       0.002173
 **** Fit       0.000764
 **** Fit      -0.000344
 **** Fit      -0.001110
 **** Fit       0.004900
 **** Fit       0.005622
 **** Fit       0.006320
 **** Fit       0.006891
 **** Fit       0.007189
 **** Fit       0.007049
 **** Fit       0.006361
 **** Fit       0.005155
 **** Fit       0.003616
 **** Fit       0.002012
 **** Fit       0.000576
 **** Fit      -0.000547
 **** Fit      -0.001315
 **** Fit       0.005094
 **** Fit       0.005792
 **** Fit       0.006436
 **** Fit       0.006923
 **** Fit       0.007116
 **** Fit       0.006877
 **** Fit       0.006126
 **** Fit       0.004899
 **** Fit       0.003369
 **** Fit       0.001779
 **** Fit       0.000354
 **** Fit      -0.000759
 **** Fit      -0.001512
 **** Fit       0.005284
 **** Fit       0.005960
 **** Fit       0.006553
 **** Fit       0.006957
 **** Fit       0.007051
 **** Fit       0.006723
 **** Fit       0.005921
 **** Fit       0.004690
 **** Fit       0.003185
 **** Fit       0.001620
 **** Fit       0.000212
 **** Fit      -0.000890
 **** Fit      -0.001628
 **** Fit       0.005501
 **** Fit       0.006179
 **** Fit       0.006755
 **** Fit       0.007121
 **** Fit       0.007158
 **** Fit       0.006772
 **** Fit       0.005928
 **** Fit       0.004684
 **** Fit       0.003185
 **** Fit       0.001633
 **** Fit       0.000234
 **** Fit      -0.000862
 **** Fit       0.005750
 **** Fit       0.006465
 **** Fit       0.007074
 **** Fit       0.007460
 **** Fit       0.007497
 **** Fit       0.007088
 **** Fit       0.006208
 **** Fit       0.004929
 **** Fit       0.003410
 **** Fit       0.001855
 **** Fit       0.000459
 **** Fit      -0.000635
 **** Fit       0.006008
 **** Fit       0.006785
 **** Fit       0.007465
 **** Fit       0.007921
 **** Fit       0.008010
 **** Fit       0.007617
 **** Fit       0.006714
 **** Fit       0.005395
 **** Fit       0.003845
 **** Fit       0.002280
 **** Fit       0.000887
 **** Fit      -0.000209
 **** Fit       0.006226
 **** Fit       0.007067
 **** Fit       0.007827
 **** Fit       0.008371
 **** Fit       0.008540
 **** Fit       0.008197
 **** Fit       0.007308
 **** Fit       0.005979
 **** Fit       0.004419
 **** Fit       0.002858
 **** Fit       0.001475
 **** Fit       0.000376
 **** Fit      -0.000406
 **** Fit       0.006350
 **** Fit       0.007230
 **** Fit       0.008042
 **** Fit       0.008652
 **** Fit       0.008893
 **** Fit       0.008621
 **** Fit       0.007794
 **** Fit       0.006519
 **** Fit       0.005007
 **** Fit       0.003490
 **** Fit       0.002138
 **** Fit       0.001046
 **** Fit       0.006340
 **** Fit       0.007216
 **** Fit       0.008030
 **** Fit       0.008656
 **** Fit       0.008936
 **** Fit       0.008736
 **** Fit       0.008014
 **** Fit       0.006861
 **** Fit       0.005472
 **** Fit       0.004056
 **** Fit       0.002772
 **** Fit       0.001708
 **** Fit       0.006189
 **** Fit       0.007015
 **** Fit       0.007780
 **** Fit       0.008371
 **** Fit       0.008653
 **** Fit       0.008514
 **** Fit       0.007916
 **** Fit       0.006934
 **** Fit       0.005724
 **** Fit       0.004462
 **** Fit       0.003287
 **** Fit       0.002281
 **** Fit       0.006658
 **** Fit       0.007339
 **** Fit       0.007862
 **** Fit       0.008121
 **** Fit       0.008028
 **** Fit       0.007556
 **** Fit       0.006759
 **** Fit       0.005752
 **** Fit       0.004673
 **** Fit       0.003637
 **** Fit       0.006779
 **** Fit       0.007223
 **** Fit       0.007448
 **** Fit       0.007391
 **** Fit       0.007031
 **** Fit       0.006405
 **** Fit       0.005596
 **** Fit       0.004703
 **** Fit       0.006536
 **** Fit       0.006727
 **** Fit       0.006696
 **** Fit       0.006429
 **** Fit       0.005950
 **** Fit       0.005314
 **** Fit       0.003539
 **** Fit       0.003376
 **** Fit       0.003034
 **** Fit       0.002532
 **** Fit       0.001923
 **** Fit       0.004079
 **** Fit       0.004126
 **** Fit       0.003971
 **** Fit       0.003589
 **** Fit       0.003002
 **** Fit       0.002277
 **** Fit       0.001504
 **** Fit       0.004343
 **** Fit       0.004604
 **** Fit       0.004692
 **** Fit       0.004542
 **** Fit       0.004121
 **** Fit       0.003451
 **** Fit       0.002612
 **** Fit       0.001717
 **** Fit       0.000876
 **** Fit       0.004745
 **** Fit       0.005047
 **** Fit       0.005159
 **** Fit       0.005002
 **** Fit       0.004539
 **** Fit       0.003793
 **** Fit       0.002856
 **** Fit       0.001858
 **** Fit       0.000925
 **** Fit       0.000143
 **** Fit       0.004620
 **** Fit       0.005054
 **** Fit       0.005367
 **** Fit       0.005472
 **** Fit       0.005290
 **** Fit       0.004780
 **** Fit       0.003969
 **** Fit       0.002960
 **** Fit       0.001893
 **** Fit       0.000900
 **** Fit       0.000073
 **** Fit       0.004842
 **** Fit       0.005270
 **** Fit       0.005562
 **** Fit       0.005632
 **** Fit       0.005405
 **** Fit       0.004845
 **** Fit       0.003988
 **** Fit       0.002936
 **** Fit       0.001834
 **** Fit       0.000814
 **** Fit      -0.000031
 **** Fit       0.005021
 **** Fit       0.005426
 **** Fit       0.005679
 **** Fit       0.005698
 **** Fit       0.005417
 **** Fit       0.004811
 **** Fit       0.003923
 **** Fit       0.002854
 **** Fit       0.001741
 **** Fit       0.000716
 **** Fit      -0.000131
 **** Fit       0.005573
 **** Fit       0.005788
 **** Fit       0.005759
 **** Fit       0.005430
 **** Fit       0.004788
 **** Fit       0.003880
 **** Fit       0.002804
 **** Fit       0.001693
 **** Fit       0.000671
 **** Fit      -0.000172
 **** Fit       0.005754
 **** Fit       0.005950
 **** Fit       0.005894
 **** Fit       0.005534
 **** Fit       0.004867
 **** Fit       0.003943
 **** Fit       0.002862
 **** Fit       0.001752
 **** Fit       0.000732
 **** Fit       0.005588
 **** Fit       0.005982
 **** Fit       0.006189
 **** Fit       0.006133
 **** Fit       0.005764
 **** Fit       0.005083
 **** Fit       0.004147
 **** Fit       0.003060
 **** Fit       0.001947
 **** Fit       0.000927
 **** Fit       0.005804
 **** Fit       0.006235
 **** Fit       0.006476
 **** Fit       0.006447
 **** Fit       0.006093
 **** Fit       0.005416
 **** Fit       0.004476
 **** Fit       0.003385
 **** Fit       0.002272
 **** Fit       0.001253
 **** Fit       0.005986
 **** Fit       0.006458
 **** Fit       0.006745
 **** Fit       0.006759
 **** Fit       0.006442
 **** Fit       0.005790
 **** Fit       0.004867
 **** Fit       0.003790
 **** Fit       0.002689
 **** Fit       0.001676
 **** Fit       0.006087
 **** Fit       0.006590
 **** Fit       0.006916
 **** Fit       0.006977
 **** Fit       0.006710
 **** Fit       0.006107
 **** Fit       0.005232
 **** Fit       0.004197
 **** Fit       0.003131
 **** Fit       0.002140
 **** Fit       0.006075
 **** Fit       0.006585
 **** Fit       0.006931
 **** Fit       0.007028
 **** Fit       0.006814
 **** Fit       0.006282
 **** Fit       0.005485
 **** Fit       0.004528
 **** Fit       0.003526
 **** Fit       0.002582
 **** Fit       0.006431
 **** Fit       0.006772
 **** Fit       0.006889
 **** Fit       0.006726
 **** Fit       0.006275
 **** Fit       0.005580
 **** Fit       0.004728
 **** Fit       0.003820
 **** Fit       0.006463
 **** Fit       0.006585
 **** Fit       0.006466
 **** Fit       0.006098
 **** Fit       0.005513
 **** Fit       0.004782
 **** Fit       0.003986
 **** Fit       0.006167
 **** Fit       0.006083
 **** Fit       0.005790
 **** Fit       0.005313
 **** Fit       0.003824
 **** Fit       0.003661
 **** Fit       0.003321
 **** Fit       0.002825
 **** Fit       0.002220
 **** Fit       0.004155
 **** Fit       0.003978
 **** Fit       0.003604
 **** Fit       0.003056
 **** Fit       0.002388
 **** Fit       0.001675
 **** Fit       0.004406
 **** Fit       0.004403
 **** Fit       0.004205
 **** Fit       0.003796
 **** Fit       0.003203
 **** Fit       0.002486
 **** Fit       0.001724
 **** Fit       0.004594
 **** Fit       0.004572
 **** Fit       0.004344
 **** Fit       0.003902
 **** Fit       0.003273
 **** Fit       0.002520
 **** Fit       0.001727
 **** Fit       0.004738
 **** Fit       0.004688
 **** Fit       0.004430
 **** Fit       0.003957
 **** Fit       0.003301
 **** Fit       0.002527
 **** Fit       0.001718
 **** Fit       0.004796
 **** Fit       0.004512
 **** Fit       0.004015
 **** Fit       0.003341
 **** Fit       0.002554
 **** Fit       0.001737
 **** Fit       0.004633
 **** Fit       0.004121
 **** Fit       0.003435
 **** Fit       0.002642
 **** Fit       0.005198
 **** Fit       0.005113
 **** Fit       0.004810
 **** Fit       0.004294
 **** Fit       0.003604
 **** Fit       0.002809
 **** Fit       0.005390
 **** Fit       0.005322
 **** Fit       0.005031
 **** Fit       0.004523
 **** Fit       0.003839
 **** Fit       0.003048
 **** Fit       0.005561
 **** Fit       0.005519
 **** Fit       0.005253
 **** Fit       0.004768
 **** Fit       0.004104
 **** Fit       0.003330
 **** Fit       0.005669
 **** Fit       0.005657
 **** Fit       0.005426
 **** Fit       0.004977
 **** Fit       0.004349
 **** Fit       0.003609
 **** Fit       0.005682
 **** Fit       0.005697
 **** Fit       0.005504
 **** Fit       0.005103
 **** Fit       0.004528
 **** Fit       0.003839
 **** Fit       0.005621
 **** Fit       0.005467
 **** Fit       0.005120
 **** Fit       0.004609
 -----------------------------------------------------------------
 Leave Link  602 at Thu Apr 21 15:49:47 2022, MaxMem=   104857600 cpu:               5.5 elap:               5.5
 (Enter /opt/ohpc/pub/libs/gaussian/g16-A.03/haswell/g16/l9999.exe)

 Test job not archived.
 1\1\GINC-CASCADEB015\SP\RB3LYP\6-311++G(d,p)\C12H21N1O4\MNG228\21-Apr-
 2022\0\\#P B3LYP/6-311++G(d,p) Geom=Allcheck SCF=Tight EmpiricalDisper
 sion=GD3BJ Pop=CHELPG SP IOp(6/33=2)\\MAA1-DMA1 geo opt\\0,1\C,0,13.62
 25265066,12.3880968003,13.2936059157\C,0,12.4500929248,12.8900993172,1
 2.4972098771\C,0,12.472477909,14.0009959943,11.7570808651\C,0,11.17241
 79459,12.1087828445,12.5334899564\O,0,10.1570657922,12.4128589746,11.9
 384827844\O,0,11.2640582207,11.0215479634,13.3119556142\H,0,13.9113835
 918,11.383164781,12.9753317499\H,0,13.3734846835,12.3185490308,14.3556
 262719\H,0,14.4792363337,13.0536093894,13.1760812495\H,0,13.3634951302
 ,14.6144249315,11.6899313001\H,0,11.5934244653,14.3106789628,11.205729
 1354\H,0,10.3856670855,10.5755819565,13.3337767768\C,0,8.7406655007,9.
 322896693,10.751917006\C,0,7.5481743339,9.9396973624,11.4247136032\C,0
 ,6.3699923715,10.139894411,10.8278166677\C,0,7.7544600674,10.334135698
 4,12.8442610586\O,0,8.7525447361,10.0309456872,13.4804281151\O,0,6.750
 2205143,11.0390846145,13.373858438\C,0,6.970016159,11.5930376893,14.69
 54593731\C,0,7.6875569781,12.9378854272,14.5777748349\N,0,8.1814665607
 ,13.3668035992,15.8838112317\C,0,9.4500492126,12.7263359987,16.2182694
 517\C,0,8.2923312011,14.8163568336,15.9789132954\H,0,9.5588993776,10.0
 466055574,10.70742158\H,0,8.4907761897,9.0124082223,9.7368328913\H,0,9
 .1022351409,8.456224749,11.310371813\H,0,6.2134564141,9.8431928348,9.7
 970071996\H,0,5.5432319063,10.6020685073,11.3500000544\H,0,7.541953975
 ,10.8833718894,15.2890865732\H,0,5.9768440499,11.7101757302,15.1240582
 517\H,0,6.9781021348,13.6806590734,14.2064073262\H,0,8.4919587706,12.8
 631231858,13.8301138917\H,0,9.3649252088,11.6417736902,16.1433741885\H
 ,0,9.7266373389,12.9746882733,17.2453454966\H,0,10.2682870368,13.04553
 12512,15.5487557687\H,0,8.6101270386,15.092446226,16.9871588633\H,0,7.
 3202534032,15.2772809791,15.7911951677\H,0,9.0215037905,15.2379848696,
 15.2633463623\\Version=ES64L-G16RevA.03\State=1-A\HF=-825.8683505\RMSD
 =2.053e-09\Dipole=-0.0812531,0.2501574,-0.1080082\Quadrupole=3.3190792
 ,-1.5370735,-1.7820057,3.1652281,1.776422,3.6966719\PG=C01 [X(C12H21N1
 O4)]\\@


 Other things may change us, but we start and end with family.
 -- Anthony Brandt
 Job cpu time:       0 days  0 hours 18 minutes 48.3 seconds.
 Elapsed time:       0 days  0 hours 18 minutes 51.6 seconds.
 File lengths (MBytes):  RWF=    368 Int=      0 D2E=      0 Chk=     48 Scr=     32
 Normal termination of Gaussian 16 at Thu Apr 21 15:49:47 2022.
