 Entering Gaussian System, Link 0=g16
 Initial command:
 /opt/ohpc/pub/libs/gaussian/g16-A.03/haswell/g16/l1.exe "g16_scratch/Gau-109846.inp" -scrdir="g16_scratch/"
 Entering Link 1 = /opt/ohpc/pub/libs/gaussian/g16-A.03/haswell/g16/l1.exe PID=    109847.
  
 Copyright (c) 1988,1990,1992,1993,1995,1998,2003,2009,2016,
            Gaussian, Inc.  All Rights Reserved.
  
 This is part of the Gaussian(R) 16 program.  It is based on
 the Gaussian(R) 09 system (copyright 2009, Gaussian, Inc.),
 the Gaussian(R) 03 system (copyright 2003, Gaussian, Inc.),
 the Gaussian(R) 98 system (copyright 1998, Gaussian, Inc.),
 the Gaussian(R) 94 system (copyright 1995, Gaussian, Inc.),
 the Gaussian 92(TM) system (copyright 1992, Gaussian, Inc.),
 the Gaussian 90(TM) system (copyright 1990, Gaussian, Inc.),
 the Gaussian 88(TM) system (copyright 1988, Gaussian, Inc.),
 the Gaussian 86(TM) system (copyright 1986, Carnegie Mellon
 University), and the Gaussian 82(TM) system (copyright 1983,
 Carnegie Mellon University). Gaussian is a federally registered
 trademark of Gaussian, Inc.
  
 This software contains proprietary and confidential information,
 including trade secrets, belonging to Gaussian, Inc.
  
 This software is provided under written license and may be
 used, copied, transmitted, or stored only in accord with that
 written license.
  
 The following legend is applicable only to US Government
 contracts under FAR:
  
                    RESTRICTED RIGHTS LEGEND
  
 Use, reproduction and disclosure by the US Government is
 subject to restrictions as set forth in subparagraphs (a)
 and (c) of the Commercial Computer Software - Restricted
 Rights clause in FAR 52.227-19.
  
 Gaussian, Inc.
 340 Quinnipiac St., Bldg. 40, Wallingford CT 06492
  
  
 ---------------------------------------------------------------
 Warning -- This program may not be used in any manner that
 competes with the business of Gaussian, Inc. or will provide
 assistance to any competitor of Gaussian, Inc.  The licensee
 of this program is prohibited from giving any competitor of
 Gaussian, Inc. access to this program.  By using this program,
 the user acknowledges that Gaussian, Inc. is engaged in the
 business of creating and licensing software in the field of
 computational chemistry and represents and warrants to the
 licensee that it is not a competitor of Gaussian, Inc. and that
 it will not use this program in any manner prohibited above.
 ---------------------------------------------------------------
  

 Cite this work as:
 Gaussian 16, Revision A.03,
 M. J. Frisch, G. W. Trucks, H. B. Schlegel, G. E. Scuseria, 
 M. A. Robb, J. R. Cheeseman, G. Scalmani, V. Barone, 
 G. A. Petersson, H. Nakatsuji, X. Li, M. Caricato, A. V. Marenich, 
 J. Bloino, B. G. Janesko, R. Gomperts, B. Mennucci, H. P. Hratchian, 
 J. V. Ortiz, A. F. Izmaylov, J. L. Sonnenberg, D. Williams-Young, 
 F. Ding, F. Lipparini, F. Egidi, J. Goings, B. Peng, A. Petrone, 
 T. Henderson, D. Ranasinghe, V. G. Zakrzewski, J. Gao, N. Rega, 
 G. Zheng, W. Liang, M. Hada, M. Ehara, K. Toyota, R. Fukuda, 
 J. Hasegawa, M. Ishida, T. Nakajima, Y. Honda, O. Kitao, H. Nakai, 
 T. Vreven, K. Throssell, J. A. Montgomery, Jr., J. E. Peralta, 
 F. Ogliaro, M. J. Bearpark, J. J. Heyd, E. N. Brothers, K. N. Kudin, 
 V. N. Staroverov, T. A. Keith, R. Kobayashi, J. Normand, 
 K. Raghavachari, A. P. Rendell, J. C. Burant, S. S. Iyengar, 
 J. Tomasi, M. Cossi, J. M. Millam, M. Klene, C. Adamo, R. Cammi, 
 J. W. Ochterski, R. L. Martin, K. Morokuma, O. Farkas, 
 J. B. Foresman, and D. J. Fox, Gaussian, Inc., Wallingford CT, 2016.
 
 ******************************************
 Gaussian 16:  ES64L-G16RevA.03 25-Dec-2016
                21-Apr-2022 
 ******************************************
 %Mem=192GB
 %NProcShared=48
 Will use up to   48 processors via shared memory.
 %Chk=MAA1-DMA1-3.chk
 ---------------------------------------------------------------------
 #n B3LYP/6-311++G(d,p) Opt freq EmpiricalDispersion=GD3BJ IOp(6/33=2)
 ---------------------------------------------------------------------
 1/18=20,19=15,26=3,38=1/1,3;
 2/9=110,12=2,17=6,18=5,40=1/2;
 3/5=4,6=6,7=1111,11=2,25=1,30=1,71=1,74=-5,124=41/1,2,3;
 4//1;
 5/5=2,38=5/2;
 6/7=2,8=2,9=2,10=2,28=1,33=2/1;
 7//1,2,3,16;
 1/18=20,19=15,26=3/3(2);
 2/9=110/2;
 99//99;
 2/9=110/2;
 3/5=4,6=6,7=1111,11=2,25=1,30=1,71=1,74=-5,124=41/1,2,3;
 4/5=5,16=3,69=1/1;
 5/5=2,38=5/2;
 7//1,2,3,16;
 1/18=20,19=15,26=3/3(-5);
 2/9=110/2;
 6/7=2,8=2,9=2,10=2,19=2,28=1,33=2/1;
 99/9=1/99;
 -----------------
 MAA1-DMA1 geo opt
 -----------------
 Symbolic Z-matrix:
 Charge =  0 Multiplicity = 1
 C                     12.78     13.085    13.734 
 C                     12.823    12.331    12.406 
 C                     13.997    12.007    11.863 
 C                     11.551    12.232    11.714 
 O                     11.489    12.405    10.466 
 O                     10.401    12.164    12.459 
 H                     13.785    13.208    14.137 
 H                     12.149    12.428    14.332 
 H                     12.356    14.089    13.727 
 H                     14.99     12.087    12.281 
 H                     14.066    11.557    10.884 
 H                     9.613     12.407    11.997 
 C                     5.748     15.742    10.062 
 C                     7.164     15.561    10.703 
 C                     7.916     16.547    11.274 
 C                     7.752     14.197    10.806 
 O                     8.022     13.642    11.858 
 O                     7.746     13.642    9.564 
 C                     8.21      12.355    9.44 
 C                     7.018     11.4      9.755 
 N                     7.417     10.005    9.523 
 C                     8.32      9.522     10.599 
 C                     6.232     9.149     9.636 
 H                     5.047     16.413    10.558 
 H                     5.236     14.785    9.959 
 H                     5.932     16.087    9.044 
 H                     7.648     17.591    11.203 
 H                     8.818     16.431    11.855 
 H                     9.037     12.178    10.127 
 H                     8.678     12.193    8.469 
 H                     6.266     11.664    9.011 
 H                     6.536     11.54     10.723 
 H                     8.598     8.487     10.397 
 H                     7.88      9.621     11.592 
 H                     9.212     10.148    10.57 
 H                     5.52      9.488     8.884 
 H                     5.736     9.122     10.607 
 H                     6.477     8.128     9.342 
 
 Add virtual bond connecting atoms O17        and H12        Dist= 3.82D+00.
 Add virtual bond connecting atoms H29        and H12        Dist= 3.72D+00.

 GradGradGradGradGradGradGradGradGradGradGradGradGradGradGradGradGradGrad
 Berny optimization.
 Initialization pass.
                           ----------------------------
                           !    Initial Parameters    !
                           ! (Angstroms and Degrees)  !
 --------------------------                            --------------------------
 ! Name  Definition              Value          Derivative Info.                !
 --------------------------------------------------------------------------------
 ! R1    R(1,2)                  1.5277         estimate D2E/DX2                !
 ! R2    R(1,7)                  1.0898         estimate D2E/DX2                !
 ! R3    R(1,8)                  1.0897         estimate D2E/DX2                !
 ! R4    R(1,9)                  1.0899         estimate D2E/DX2                !
 ! R5    R(2,3)                  1.3335         estimate D2E/DX2                !
 ! R6    R(2,4)                  1.4514         estimate D2E/DX2                !
 ! R7    R(3,10)                 1.0804         estimate D2E/DX2                !
 ! R8    R(3,11)                 1.0797         estimate D2E/DX2                !
 ! R9    R(4,5)                  1.2615         estimate D2E/DX2                !
 ! R10   R(4,6)                  1.3719         estimate D2E/DX2                !
 ! R11   R(6,12)                 0.9452         estimate D2E/DX2                !
 ! R12   R(12,17)                2.0189         estimate D2E/DX2                !
 ! R13   R(12,29)                1.9701         estimate D2E/DX2                !
 ! R14   R(13,14)                1.5648         estimate D2E/DX2                !
 ! R15   R(13,24)                1.0898         estimate D2E/DX2                !
 ! R16   R(13,25)                1.0902         estimate D2E/DX2                !
 ! R17   R(13,26)                1.0905         estimate D2E/DX2                !
 ! R18   R(14,15)                1.3652         estimate D2E/DX2                !
 ! R19   R(14,16)                1.4889         estimate D2E/DX2                !
 ! R20   R(15,27)                1.0802         estimate D2E/DX2                !
 ! R21   R(15,28)                1.0792         estimate D2E/DX2                !
 ! R22   R(16,17)                1.2197         estimate D2E/DX2                !
 ! R23   R(16,18)                1.3604         estimate D2E/DX2                !
 ! R24   R(18,19)                1.3737         estimate D2E/DX2                !
 ! R25   R(19,20)                1.5595         estimate D2E/DX2                !
 ! R26   R(19,29)                1.0896         estimate D2E/DX2                !
 ! R27   R(19,30)                1.09           estimate D2E/DX2                !
 ! R28   R(20,21)                1.4694         estimate D2E/DX2                !
 ! R29   R(20,31)                1.0903         estimate D2E/DX2                !
 ! R30   R(20,32)                1.0904         estimate D2E/DX2                !
 ! R31   R(21,22)                1.4854         estimate D2E/DX2                !
 ! R32   R(21,23)                1.4662         estimate D2E/DX2                !
 ! R33   R(22,33)                1.0906         estimate D2E/DX2                !
 ! R34   R(22,34)                1.0906         estimate D2E/DX2                !
 ! R35   R(22,35)                1.0901         estimate D2E/DX2                !
 ! R36   R(23,36)                1.0897         estimate D2E/DX2                !
 ! R37   R(23,37)                1.0907         estimate D2E/DX2                !
 ! R38   R(23,38)                1.0904         estimate D2E/DX2                !
 ! A1    A(2,1,7)              110.5614         estimate D2E/DX2                !
 ! A2    A(2,1,8)              101.2894         estimate D2E/DX2                !
 ! A3    A(2,1,9)              117.3884         estimate D2E/DX2                !
 ! A4    A(7,1,8)              113.5243         estimate D2E/DX2                !
 ! A5    A(7,1,9)              104.9026         estimate D2E/DX2                !
 ! A6    A(8,1,9)              109.4914         estimate D2E/DX2                !
 ! A7    A(1,2,3)              119.9125         estimate D2E/DX2                !
 ! A8    A(1,2,4)              115.0518         estimate D2E/DX2                !
 ! A9    A(3,2,4)              124.1152         estimate D2E/DX2                !
 ! A10   A(2,3,10)             129.3223         estimate D2E/DX2                !
 ! A11   A(2,3,11)             121.788          estimate D2E/DX2                !
 ! A12   A(10,3,11)            108.8416         estimate D2E/DX2                !
 ! A13   A(2,4,5)              120.3582         estimate D2E/DX2                !
 ! A14   A(2,4,6)              118.6263         estimate D2E/DX2                !
 ! A15   A(5,4,6)              120.1882         estimate D2E/DX2                !
 ! A16   A(4,6,12)             114.8759         estimate D2E/DX2                !
 ! A17   A(6,12,17)            147.9845         estimate D2E/DX2                !
 ! A18   A(6,12,29)            132.6732         estimate D2E/DX2                !
 ! A19   A(17,12,29)            77.0172         estimate D2E/DX2                !
 ! A20   A(14,13,24)           117.8296         estimate D2E/DX2                !
 ! A21   A(14,13,25)           111.2309         estimate D2E/DX2                !
 ! A22   A(14,13,26)           105.4445         estimate D2E/DX2                !
 ! A23   A(24,13,25)           106.3429         estimate D2E/DX2                !
 ! A24   A(24,13,26)           109.7923         estimate D2E/DX2                !
 ! A25   A(25,13,26)           105.59           estimate D2E/DX2                !
 ! A26   A(13,14,15)           125.8906         estimate D2E/DX2                !
 ! A27   A(13,14,16)           119.4498         estimate D2E/DX2                !
 ! A28   A(15,14,16)           114.5307         estimate D2E/DX2                !
 ! A29   A(14,15,27)           122.2688         estimate D2E/DX2                !
 ! A30   A(14,15,28)           127.4414         estimate D2E/DX2                !
 ! A31   A(27,15,28)           110.2824         estimate D2E/DX2                !
 ! A32   A(14,16,17)           124.3296         estimate D2E/DX2                !
 ! A33   A(14,16,18)           107.9899         estimate D2E/DX2                !
 ! A34   A(17,16,18)           127.0705         estimate D2E/DX2                !
 ! A35   A(12,17,16)           120.8103         estimate D2E/DX2                !
 ! A36   A(16,18,19)           117.5906         estimate D2E/DX2                !
 ! A37   A(18,19,20)           107.2963         estimate D2E/DX2                !
 ! A38   A(18,19,29)           110.5881         estimate D2E/DX2                !
 ! A39   A(18,19,30)           111.388          estimate D2E/DX2                !
 ! A40   A(20,19,29)           110.6892         estimate D2E/DX2                !
 ! A41   A(20,19,30)           114.6512         estimate D2E/DX2                !
 ! A42   A(29,19,30)           102.2189         estimate D2E/DX2                !
 ! A43   A(19,20,21)           109.9945         estimate D2E/DX2                !
 ! A44   A(19,20,31)           103.9498         estimate D2E/DX2                !
 ! A45   A(19,20,32)           116.012          estimate D2E/DX2                !
 ! A46   A(21,20,31)           108.0249         estimate D2E/DX2                !
 ! A47   A(21,20,32)           112.4638         estimate D2E/DX2                !
 ! A48   A(31,20,32)           105.6533         estimate D2E/DX2                !
 ! A49   A(20,21,22)           111.0637         estimate D2E/DX2                !
 ! A50   A(20,21,23)           108.8226         estimate D2E/DX2                !
 ! A51   A(22,21,23)           104.2206         estimate D2E/DX2                !
 ! A52   A(21,22,33)           109.2316         estimate D2E/DX2                !
 ! A53   A(21,22,34)           112.6292         estimate D2E/DX2                !
 ! A54   A(21,22,35)           106.9436         estimate D2E/DX2                !
 ! A55   A(33,22,34)           110.9554         estimate D2E/DX2                !
 ! A56   A(33,22,35)           109.3585         estimate D2E/DX2                !
 ! A57   A(34,22,35)           107.5904         estimate D2E/DX2                !
 ! A58   A(21,23,36)           107.0543         estimate D2E/DX2                !
 ! A59   A(21,23,37)           116.7829         estimate D2E/DX2                !
 ! A60   A(21,23,38)           110.139          estimate D2E/DX2                !
 ! A61   A(36,23,37)           108.9624         estimate D2E/DX2                !
 ! A62   A(36,23,38)           104.5989         estimate D2E/DX2                !
 ! A63   A(37,23,38)           108.6054         estimate D2E/DX2                !
 ! A64   A(12,29,19)           143.275          estimate D2E/DX2                !
 ! D1    D(7,1,2,3)             -4.4972         estimate D2E/DX2                !
 ! D2    D(7,1,2,4)           -173.966          estimate D2E/DX2                !
 ! D3    D(8,1,2,3)           -125.1336         estimate D2E/DX2                !
 ! D4    D(8,1,2,4)             65.3976         estimate D2E/DX2                !
 ! D5    D(9,1,2,3)            115.7472         estimate D2E/DX2                !
 ! D6    D(9,1,2,4)            -53.7216         estimate D2E/DX2                !
 ! D7    D(1,2,3,10)             8.5979         estimate D2E/DX2                !
 ! D8    D(1,2,3,11)          -174.2153         estimate D2E/DX2                !
 ! D9    D(4,2,3,10)           177.0614         estimate D2E/DX2                !
 ! D10   D(4,2,3,11)            -5.7519         estimate D2E/DX2                !
 ! D11   D(1,2,4,5)            137.5629         estimate D2E/DX2                !
 ! D12   D(1,2,4,6)            -32.043          estimate D2E/DX2                !
 ! D13   D(3,2,4,5)            -31.4053         estimate D2E/DX2                !
 ! D14   D(3,2,4,6)            158.9887         estimate D2E/DX2                !
 ! D15   D(2,4,6,12)           159.2304         estimate D2E/DX2                !
 ! D16   D(5,4,6,12)           -10.3937         estimate D2E/DX2                !
 ! D17   D(4,6,12,17)         -119.414          estimate D2E/DX2                !
 ! D18   D(4,6,12,29)           34.4955         estimate D2E/DX2                !
 ! D19   D(6,12,17,16)         129.3682         estimate D2E/DX2                !
 ! D20   D(29,12,17,16)        -31.2518         estimate D2E/DX2                !
 ! D21   D(6,12,29,19)         178.1084         estimate D2E/DX2                !
 ! D22   D(17,12,29,19)        -15.7351         estimate D2E/DX2                !
 ! D23   D(24,13,14,15)        -39.2991         estimate D2E/DX2                !
 ! D24   D(24,13,14,16)        136.3361         estimate D2E/DX2                !
 ! D25   D(25,13,14,15)       -162.4223         estimate D2E/DX2                !
 ! D26   D(25,13,14,16)         13.2128         estimate D2E/DX2                !
 ! D27   D(26,13,14,15)         83.5953         estimate D2E/DX2                !
 ! D28   D(26,13,14,16)       -100.7695         estimate D2E/DX2                !
 ! D29   D(13,14,15,27)         -9.1946         estimate D2E/DX2                !
 ! D30   D(13,14,15,28)        169.7128         estimate D2E/DX2                !
 ! D31   D(16,14,15,27)        174.9831         estimate D2E/DX2                !
 ! D32   D(16,14,15,28)         -6.1096         estimate D2E/DX2                !
 ! D33   D(13,14,16,17)       -117.2257         estimate D2E/DX2                !
 ! D34   D(13,14,16,18)         54.3565         estimate D2E/DX2                !
 ! D35   D(15,14,16,17)         58.8881         estimate D2E/DX2                !
 ! D36   D(15,14,16,18)       -129.5297         estimate D2E/DX2                !
 ! D37   D(14,16,17,12)       -145.9333         estimate D2E/DX2                !
 ! D38   D(18,16,17,12)         44.1164         estimate D2E/DX2                !
 ! D39   D(14,16,18,19)       -177.9223         estimate D2E/DX2                !
 ! D40   D(17,16,18,19)         -6.6368         estimate D2E/DX2                !
 ! D41   D(16,18,19,20)         85.3291         estimate D2E/DX2                !
 ! D42   D(16,18,19,29)        -35.4845         estimate D2E/DX2                !
 ! D43   D(16,18,19,30)       -148.4346         estimate D2E/DX2                !
 ! D44   D(18,19,20,21)        174.9745         estimate D2E/DX2                !
 ! D45   D(18,19,20,31)         59.5281         estimate D2E/DX2                !
 ! D46   D(18,19,20,32)        -55.9755         estimate D2E/DX2                !
 ! D47   D(29,19,20,21)        -64.2757         estimate D2E/DX2                !
 ! D48   D(29,19,20,31)       -179.7221         estimate D2E/DX2                !
 ! D49   D(29,19,20,32)         64.7744         estimate D2E/DX2                !
 ! D50   D(30,19,20,21)         50.7            estimate D2E/DX2                !
 ! D51   D(30,19,20,31)        -64.7463         estimate D2E/DX2                !
 ! D52   D(30,19,20,32)        179.7501         estimate D2E/DX2                !
 ! D53   D(18,19,29,12)         47.5699         estimate D2E/DX2                !
 ! D54   D(20,19,29,12)        -71.2038         estimate D2E/DX2                !
 ! D55   D(30,19,29,12)        166.2512         estimate D2E/DX2                !
 ! D56   D(19,20,21,22)         73.9734         estimate D2E/DX2                !
 ! D57   D(19,20,21,23)       -171.8594         estimate D2E/DX2                !
 ! D58   D(31,20,21,22)       -173.1856         estimate D2E/DX2                !
 ! D59   D(31,20,21,23)        -59.0184         estimate D2E/DX2                !
 ! D60   D(32,20,21,22)        -56.9807         estimate D2E/DX2                !
 ! D61   D(32,20,21,23)         57.1865         estimate D2E/DX2                !
 ! D62   D(20,21,22,33)       -179.9239         estimate D2E/DX2                !
 ! D63   D(20,21,22,34)         56.3106         estimate D2E/DX2                !
 ! D64   D(20,21,22,35)        -61.6765         estimate D2E/DX2                !
 ! D65   D(23,21,22,33)         63.0579         estimate D2E/DX2                !
 ! D66   D(23,21,22,34)        -60.7076         estimate D2E/DX2                !
 ! D67   D(23,21,22,35)       -178.6947         estimate D2E/DX2                !
 ! D68   D(20,21,23,36)         59.5605         estimate D2E/DX2                !
 ! D69   D(20,21,23,37)        -62.8231         estimate D2E/DX2                !
 ! D70   D(20,21,23,38)        172.7212         estimate D2E/DX2                !
 ! D71   D(22,21,23,36)        178.1217         estimate D2E/DX2                !
 ! D72   D(22,21,23,37)         55.7382         estimate D2E/DX2                !
 ! D73   D(22,21,23,38)        -68.7176         estimate D2E/DX2                !
 --------------------------------------------------------------------------------
 Trust Radius=3.00D-01 FncErr=1.00D-07 GrdErr=1.00D-06 EigMax=2.50D+02 EigMin=1.00D-04
 Number of steps in this run=    185 maximum allowed number of steps=    228.
 GradGradGradGradGradGradGradGradGradGradGradGradGradGradGradGradGradGrad

                          Input orientation:                          
 ---------------------------------------------------------------------
 Center     Atomic      Atomic             Coordinates (Angstroms)
 Number     Number       Type             X           Y           Z
 ---------------------------------------------------------------------
      1          6           0       12.780000   13.085000   13.734000
      2          6           0       12.823000   12.331000   12.406000
      3          6           0       13.997000   12.007000   11.863000
      4          6           0       11.551000   12.232000   11.714000
      5          8           0       11.489000   12.405000   10.466000
      6          8           0       10.401000   12.164000   12.459000
      7          1           0       13.785000   13.208000   14.137000
      8          1           0       12.149000   12.428000   14.332000
      9          1           0       12.356000   14.089000   13.727000
     10          1           0       14.990000   12.087000   12.281000
     11          1           0       14.066000   11.557000   10.884000
     12          1           0        9.613000   12.407000   11.997000
     13          6           0        5.748000   15.742000   10.062000
     14          6           0        7.164000   15.561000   10.703000
     15          6           0        7.916000   16.547000   11.274000
     16          6           0        7.752000   14.197000   10.806000
     17          8           0        8.022000   13.642000   11.858000
     18          8           0        7.746000   13.642000    9.564000
     19          6           0        8.210000   12.355000    9.440000
     20          6           0        7.018000   11.400000    9.755000
     21          7           0        7.417000   10.005000    9.523000
     22          6           0        8.320000    9.522000   10.599000
     23          6           0        6.232000    9.149000    9.636000
     24          1           0        5.047000   16.413000   10.558000
     25          1           0        5.236000   14.785000    9.959000
     26          1           0        5.932000   16.087000    9.044000
     27          1           0        7.648000   17.591000   11.203000
     28          1           0        8.818000   16.431000   11.855000
     29          1           0        9.037000   12.178000   10.127000
     30          1           0        8.678000   12.193000    8.469000
     31          1           0        6.266000   11.664000    9.011000
     32          1           0        6.536000   11.540000   10.723000
     33          1           0        8.598000    8.487000   10.397000
     34          1           0        7.880000    9.621000   11.592000
     35          1           0        9.212000   10.148000   10.570000
     36          1           0        5.520000    9.488000    8.884000
     37          1           0        5.736000    9.122000   10.607000
     38          1           0        6.477000    8.128000    9.342000
 ---------------------------------------------------------------------
                    Distance matrix (angstroms):
                    1          2          3          4          5
     1  C    0.000000
     2  C    1.527727   0.000000
     3  C    2.478672   1.333455   0.000000
     4  C    2.513653   1.451430   2.460842   0.000000
     5  O    3.578953   2.355553   2.898289   1.261458   0.000000
     6  O    2.851930   2.428329   3.648435   1.371914   2.283391
     7  H    1.089754   2.165856   2.580392   3.437188   4.403710
     8  H    1.089685   2.042832   3.112604   2.692572   3.922000
     9  H    1.089881   2.248042   3.240695   2.854583   3.771162
    10  H    2.826891   2.184273   1.080358   3.488443   3.956305
    11  H    3.480098   2.112015   1.079677   2.733084   2.744951
    12  H    3.675152   3.236844   4.404249   1.966357   2.421434
    13  C    8.366138   8.196638   9.232542   6.980259   6.652659
    14  C    6.845217   6.734790   7.788864   5.599119   5.359303
    15  C    6.457208   6.567703   7.611641   5.659156   5.529499
    16  C    5.923725   5.635335   6.701744   4.372424   4.158369
    17  O    5.144724   5.006858   6.194665   3.802983   3.935470
    18  O    6.560511   5.964194   6.858107   4.592235   4.043986
    19  C    6.313180   5.484296   6.283423   4.043326   3.436134
    20  C    7.202243   6.449232   7.315638   5.007793   4.637390
    21  N    7.482024   6.553381   7.264985   5.181695   4.819796
    22  C    6.512664   5.606491   6.324654   4.361959   4.286250
    23  C    8.669602   7.825555   8.568717   6.489587   6.239109
    24  H    8.997880   8.974631  10.060734   7.817871   7.587614
    25  H    8.605380   8.341013   9.386033   7.033993   6.709803
    26  H    8.826279   8.537942   9.467702   7.318681   6.816117
    27  H    7.283366   7.476325   8.480947   6.649317   6.495463
    28  H    5.515777   5.757919   6.811305   5.012063   5.027150
    29  H    5.276661   4.421656   5.257807   2.973496   2.485710
    30  H    6.733669   5.718395   6.312337   4.334244   3.454660
    31  H    8.170567   7.413849   8.247419   5.963225   5.472279
    32  H    7.102160   6.556260   7.562024   5.158602   5.034529
    33  H    7.054523   6.055001   6.609747   4.947699   4.869637
    34  H    6.371614   5.695608   6.571463   4.506489   4.695041
    35  H    5.600669   4.601707   5.293766   3.335073   3.207740
    36  H    9.442908   8.591911   9.331631   7.204956   6.829390
    37  H    8.666108   7.984964   8.839959   6.686686   6.625329
    38  H    9.142720   8.205183   8.829070   6.943679   6.684029
                    6          7          8          9         10
     6  O    0.000000
     7  H    3.918811   0.000000
     8  H    2.575525   1.822888   0.000000
     9  H    3.022495   1.728092   1.779830   0.000000
    10  H    4.593096   2.480605   3.520534   3.610661   0.000000
    11  H    4.035009   3.658794   4.040078   4.173461   1.756783
    12  H    0.945218   4.756762   3.447312   3.653228   5.393995
    13  C    6.340197   9.360564   8.377846   7.735005  10.183199
    14  C    5.010121   7.820908   6.916325   6.186132   8.706609
    15  C    5.175919   7.334225   6.651001   5.636717   8.423012
    16  C    3.725949   6.962095   5.907254   5.453505   7.682211
    17  O    2.864494   6.212436   4.962520   4.740941   7.151921
    18  O    4.196967   7.587503   6.602577   6.227558   7.891492
    19  C    3.735147   7.339621   6.281140   6.210833   7.356052
    20  C    4.397727   8.262147   6.952185   7.176472   8.390794
    21  N    4.710163   8.491150   7.168628   7.664620   8.324159
    22  C    3.843218   7.481328   6.086162   6.850633   7.341475
    23  C    5.868570   9.684126   8.234995   8.868103   9.608873
    24  H    7.094584   9.971655   8.975617   8.298495  10.979356
    25  H    6.308476   9.645103   8.512823   8.085582  10.383227
    26  H    6.857413   9.792696   8.944401   8.196967  10.417559
    27  H    6.213604   8.092083   7.530353   6.387476   9.239105
    28  H    4.591078   6.345577   5.766723   4.637542   7.559457
    29  H    2.701651   6.299564   5.237277   5.256204   6.331367
    30  H    4.346225   7.696616   6.817465   6.690969   7.374546
    31  H    5.407118   9.230123   7.969092   8.075233   9.326307
    32  H    4.282674   8.184474   6.731953   7.028073   8.613750
    33  H    4.585083   7.948611   6.604946   7.522890   7.574109
    34  H    3.684288   7.362922   5.797518   6.675015   7.556982
    35  H    3.007706   6.557394   5.289330   5.948350   6.330286
    36  H    6.615570  10.475812   9.070168   9.557968  10.391117
    37  H    5.869062   9.692404   8.119842   8.844766   9.860528
    38  H    6.434498  10.109663   8.692622   9.451158   9.837813
                   11         12         13         14         15
    11  H    0.000000
    12  H    4.668027   0.000000
    13  C    9.347675   5.459366   0.000000
    14  C    7.981377   4.197589   1.564832   0.000000
    15  C    7.929357   4.532344   2.610975   1.365189   0.000000
    16  C    6.844142   2.843572   2.637532   1.488909   2.401754
    17  O    6.467290   2.018868   3.578644   2.398489   2.965016
    18  O    6.784690   3.306116   2.941090   2.306210   3.375207
    19  C    6.083969   2.917081   4.233214   3.601072   4.585069
    20  C    7.139579   3.574163   4.534326   4.270122   5.441082
    21  N    6.962056   4.088116   5.999104   5.685556   6.790638
    22  C    6.102374   3.456802   6.752181   6.149526   7.068908
    23  C    8.290207   5.255478   6.624453   6.566647   7.762043
    24  H   10.248384   6.242364   1.089797   2.286617   2.960029
    25  H    9.446931   5.382050   1.090230   2.207464   3.466449
    26  H    9.490440   5.984344   1.090507   2.132318   3.020059
    27  H    8.814853   5.600493   2.886292   2.145963   1.080186
    28  H    7.227740   4.104237   3.621391   2.195386   1.079176
    29  H    5.123430   1.970055   4.850138   3.909552   4.654075
    30  H    5.938625   3.656064   4.870108   4.315829   5.235073
    31  H    8.022442   4.546499   4.242995   4.342335   5.629153
    32  H    7.531740   3.441322   4.326045   4.069794   5.222839
    33  H    6.289761   4.353921   7.801907   7.224366   8.136206
    34  H    6.520426   3.305920   6.659802   6.048684   6.933390
    35  H    5.064108   2.701890   6.599257   5.789004   6.566767
    36  H    9.017476   5.913035   6.368060   6.549261   7.828307
    37  H    8.683021   5.268250   6.642407   6.596144   7.767105
    38  H    8.469281   5.932399   7.682632   7.587739   8.756878
                   16         17         18         19         20
    16  C    0.000000
    17  O    1.219684   0.000000
    18  O    1.360377   2.310544   0.000000
    19  C    2.338522   2.745621   1.373696   0.000000
    20  C    3.076779   3.233758   2.364959   1.559524   0.000000
    21  N    4.396724   4.364174   3.652080   2.481580   1.469371
    22  C    4.713926   4.318366   4.286619   3.062886   2.436067
    23  C    5.400149   5.322446   4.741775   3.772179   2.387249
    24  H    3.505593   4.268380   3.993880   5.265155   5.446083
    25  H    2.719082   3.560119   2.786140   3.875427   3.830844
    26  H    3.160561   4.273724   3.088531   4.390208   4.863423
    27  H    3.418722   4.020386   4.276742   5.553351   6.389216
    28  H    2.688403   2.900370   3.765154   4.776575   5.741164
    29  H    2.487695   2.483925   2.031489   1.089599   2.195456
    30  H    3.214819   3.743696   2.041384   1.090004   2.244604
    31  H    3.441847   3.886056   2.531540   2.107287   1.090292
    32  H    2.923216   2.813330   2.688082   2.261104   1.090389
    33  H    5.786804   5.388907   5.290918   4.003476   3.375520
    34  H    4.644777   4.032290   4.505461   3.494962   2.698602
    35  H    4.310649   3.909358   3.920361   2.674276   2.654311
    36  H    5.554331   5.688620   4.761638   3.970507   2.580385
    37  H    5.464383   5.217394   5.055527   4.234956   2.749311
    38  H    6.371945   6.254716   5.662494   4.569510   3.342040
                   21         22         23         24         25
    21  N    0.000000
    22  C    1.485420   0.000000
    23  C    1.466196   2.329430   0.000000
    24  H    6.910180   7.628898   7.417547   0.000000
    25  H    5.272121   6.133500   5.732438   1.744966   0.000000
    26  H    6.278964   7.156801   6.969671   1.783731   1.736907
    27  H    7.773233   8.119431   8.702178   2.927270   3.903705
    28  H    6.978145   7.039874   8.039831   3.987853   4.374341
    29  H    2.776895   2.791274   4.157397   5.834474   4.612188
    30  H    2.736491   3.435012   4.075628   5.946132   4.559159
    31  H    2.083081   3.365832   2.591719   5.141223   3.420562
    32  H    2.138314   2.696360   2.644025   5.098085   3.578229
    33  H    2.112572   1.090556   2.572027   8.686599   7.152600
    34  H    2.154666   1.090619   2.600889   7.431441   6.026966
    35  H    2.082951   1.090129   3.278835   7.523137   6.138702
    36  H    2.067418   3.283654   1.089665   7.140142   5.412438
    37  H    2.186437   2.614789   1.090681   7.323647   5.721842
    38  H    2.107010   2.630577   1.090368   8.494986   6.799737
                   26         27         28         29         30
    26  H    0.000000
    27  H    3.141330   0.000000
    28  H    4.043396   1.771893   0.000000
    29  H    5.108248   5.691016   4.595863   0.000000
    30  H    4.799414   6.137920   5.426347   1.696488   0.000000
    31  H    4.435716   6.468703   6.109446   3.031187   2.528112
    32  H    4.884574   6.171025   5.514601   2.649011   3.177277
    33  H    8.166894   9.188849   8.079684   3.726809   4.178280
    34  H    7.217767   7.982859   6.879325   3.165932   4.123726
    35  H    6.954049   7.631843   6.425150   2.085132   2.980165
    36  H    6.613784   8.692799   8.240685   4.598961   4.178781
    37  H    7.140911   8.702581   8.029801   4.523951   4.759984
    38  H    7.983202   9.715088   8.985280   4.855134   4.704334
                   31         32         33         34         35
    31  H    0.000000
    32  H    1.737590   0.000000
    33  H    4.177625   3.698504   0.000000
    34  H    3.666116   2.498811   1.797082   0.000000
    35  H    3.661646   3.020273   1.779282   1.759670   0.000000
    36  H    2.303827   2.936815   3.572850   3.594517   4.112063
    37  H    3.047930   2.549545   2.939110   2.411631   3.624448
    38  H    3.557721   3.681357   2.395944   3.043018   3.615053
                   36         37         38
    36  H    0.000000
    37  H    1.774638   0.000000
    38  H    1.724881   1.771254   0.000000
 Stoichiometry    C12H21NO4
 Framework group  C1[X(C12H21NO4)]
 Deg. of freedom   108
 Full point group                 C1      NOp   1
 Largest Abelian subgroup         C1      NOp   1
 Largest concise Abelian subgroup C1      NOp   1
                         Standard orientation:                         
 ---------------------------------------------------------------------
 Center     Atomic      Atomic             Coordinates (Angstroms)
 Number     Number       Type             X           Y           Z
 ---------------------------------------------------------------------
      1          6           0        4.451629   -1.032536   -1.055715
      2          6           0        4.067786   -0.040182    0.040573
      3          6           0        4.981923    0.359995    0.925058
      4          6           0        2.644333    0.211954    0.170406
      5          8           0        2.110566    0.281113    1.311278
      6          8           0        1.861845    0.157596   -0.955164
      7          1           0        5.519210   -1.248305   -1.019965
      8          1           0        4.147237   -0.490194   -1.950492
      9          1           0        3.967649   -2.008936   -1.040016
     10          1           0        6.047765    0.183789    0.935319
     11          1           0        4.724053    0.986990    1.765345
     12          1           0        0.940679    0.021439   -0.792832
     13          6           0       -3.645575   -2.812963    0.065723
     14          6           0       -2.082887   -2.783172   -0.010555
     15          6           0       -1.263935   -3.873404   -0.077281
     16          6           0       -1.379760   -1.474702   -0.112371
     17          8           0       -0.692065   -1.135349   -1.060814
     18          8           0       -1.794836   -0.693167    0.920848
     19          6           0       -1.297110    0.585238    0.991486
     20          6           0       -2.198504    1.484184    0.090653
     21          7           0       -1.791207    2.890354    0.216535
     22          6           0       -0.515515    3.142973   -0.501287
     23          6           0       -2.769545    3.730499   -0.481133
     24          1           0       -4.170375   -3.553352   -0.537658
     25          1           0       -4.072210   -1.844739   -0.197197
     26          1           0       -3.882102   -2.960921    1.119937
     27          1           0       -1.630811   -4.879700    0.062616
     28          1           0       -0.204639   -3.886646   -0.283042
     29          1           0       -0.262611    0.613029    0.650508
     30          1           0       -1.208533    0.920792    2.024766
     31          1           0       -3.192414    1.380503    0.526690
     32          1           0       -2.299185    1.171050   -0.948942
     33          1           0       -0.241042    4.192280   -0.387566
     34          1           0       -0.564468    2.864554   -1.554632
     35          1           0        0.243261    2.517885   -0.030220
     36          1           0       -3.736073    3.554004   -0.009921
     37          1           0       -2.867232    3.580958   -1.557089
     38          1           0       -2.560828    4.784197   -0.293888
 ---------------------------------------------------------------------
 Rotational constants (GHZ):           0.4328113           0.2749117           0.1853078
 Standard basis: 6-311++G(d,p) (5D, 7F)
 There are   538 symmetry adapted cartesian basis functions of A   symmetry.
 There are   521 symmetry adapted basis functions of A   symmetry.
   521 basis functions,   801 primitive gaussians,   538 cartesian basis functions
    66 alpha electrons       66 beta electrons
       nuclear repulsion energy      1243.2634509568 Hartrees.
 NAtoms=   38 NActive=   38 NUniq=   38 SFac= 1.00D+00 NAtFMM=   60 NAOKFM=F Big=F
 Integral buffers will be    131072 words long.
 Raffenetti 2 integral format.
 Two-electron integral symmetry is turned on.
 Nuclear repulsion after empirical dispersion term =     1243.2034187837 Hartrees.
 One-electron integrals computed using PRISM.
 NBasis=   521 RedAO= T EigKep=  2.52D-06  NBF=   521
 NBsUse=   521 1.00D-06 EigRej= -1.00D+00 NBFU=   521
 ExpMin= 3.60D-02 ExpMax= 8.59D+03 ExpMxC= 1.30D+03 IAcc=3 IRadAn=         5 AccDes= 0.00D+00
 Harris functional with IExCor=  402 and IRadAn=       5 diagonalized for initial guess.
 HarFok:  IExCor=  402 AccDes= 0.00D+00 IRadAn=         5 IDoV= 1 UseB2=F ITyADJ=14
 ICtDFT=  3500011 ScaDFX=  1.000000  1.000000  1.000000  1.000000
 FoFCou: FMM=F IPFlag=           0 FMFlag=      100000 FMFlg1=           0
         NFxFlg=           0 DoJE=T BraDBF=F KetDBF=T FulRan=T
         wScrn=  0.000000 ICntrl=       500 IOpCl=  0 I1Cent=   200000004 NGrid=           0
         NMat0=    1 NMatS0=      1 NMatT0=    0 NMatD0=    1 NMtDS0=    0 NMtDT0=    0
 Petite list used in FoFCou.
 Requested convergence on RMS density matrix=1.00D-08 within 128 cycles.
 Requested convergence on MAX density matrix=1.00D-06.
 Requested convergence on             energy=1.00D-06.
 No special actions if energy rises.
 SCF Done:  E(RB3LYP) =  -825.807302086     A.U. after   15 cycles
            NFock= 15  Conv=0.63D-08     -V/T= 2.0043
 SCF density gives NOpUse=  1 NOpAll=  1.

 **********************************************************************

            Population analysis using the SCF density.

 **********************************************************************

 Orbital symmetries:
 BldTbl:  Degeneracy threshold= 1.00D-02
       Occupied  (A) (A) (A) (A) (A) (A) (A) (A) (A) (A) (A) (A)
                 (A) (A) (A) (A) (A) (A) (A) (A) (A) (A) (A) (A)
                 (A) (A) (A) (A) (A) (A) (A) (A) (A) (A) (A) (A)
                 (A) (A) (A) (A) (A) (A) (A) (A) (A) (A) (A) (A)
                 (A) (A) (A) (A) (A) (A) (A) (A) (A) (A) (A) (A)
                 (A) (A) (A) (A) (A) (A)
       Virtual   (A) (A) (A) (A) (A) (A) (A) (A) (A) (A) (A) (A)
                 (A) (A) (A) (A) (A) (A) (A) (A) (A) (A) (A) (A)
                 (A) (A) (A) (A) (A) (A) (A) (A) (A) (A) (A) (A)
                 (A) (A) (A) (A) (A) (A) (A) (A) (A) (A) (A) (A)
                 (A) (A) (A) (A) (A) (A) (A) (A) (A) (A) (A) (A)
                 (A) (A) (A) (A) (A) (A) (A) (A) (A) (A) (A) (A)
                 (A) (A) (A) (A) (A) (A) (A) (A) (A) (A) (A) (A)
                 (A) (A) (A) (A) (A) (A) (A) (A) (A) (A) (A) (A)
                 (A) (A) (A) (A) (A) (A) (A) (A) (A) (A) (A) (A)
                 (A) (A) (A) (A) (A) (A) (A) (A) (A) (A) (A) (A)
                 (A) (A) (A) (A) (A) (A) (A) (A) (A) (A) (A) (A)
                 (A) (A) (A) (A) (A) (A) (A) (A) (A) (A) (A) (A)
                 (A) (A) (A) (A) (A) (A) (A) (A) (A) (A) (A) (A)
                 (A) (A) (A) (A) (A) (A) (A) (A) (A) (A) (A) (A)
                 (A) (A) (A) (A) (A) (A) (A) (A) (A) (A) (A) (A)
                 (A) (A) (A) (A) (A) (A) (A) (A) (A) (A) (A) (A)
                 (A) (A) (A) (A) (A) (A) (A) (A) (A) (A) (A) (A)
                 (A) (A) (A) (A) (A) (A) (A) (A) (A) (A) (A) (A)
                 (A) (A) (A) (A) (A) (A) (A) (A) (A) (A) (A) (A)
                 (A) (A) (A) (A) (A) (A) (A) (A) (A) (A) (A) (A)
                 (A) (A) (A) (A) (A) (A) (A) (A) (A) (A) (A) (A)
                 (A) (A) (A) (A) (A) (A) (A) (A) (A) (A) (A) (A)
                 (A) (A) (A) (A) (A) (A) (A) (A) (A) (A) (A) (A)
                 (A) (A) (A) (A) (A) (A) (A) (A) (A) (A) (A) (A)
                 (A) (A) (A) (A) (A) (A) (A) (A) (A) (A) (A) (A)
                 (A) (A) (A) (A) (A) (A) (A) (A) (A) (A) (A) (A)
                 (A) (A) (A) (A) (A) (A) (A) (A) (A) (A) (A) (A)
                 (A) (A) (A) (A) (A) (A) (A) (A) (A) (A) (A) (A)
                 (A) (A) (A) (A) (A) (A) (A) (A) (A) (A) (A) (A)
                 (A) (A) (A) (A) (A) (A) (A) (A) (A) (A) (A) (A)
                 (A) (A) (A) (A) (A) (A) (A) (A) (A) (A) (A) (A)
                 (A) (A) (A) (A) (A) (A) (A) (A) (A) (A) (A) (A)
                 (A) (A) (A) (A) (A) (A) (A) (A) (A) (A) (A) (A)
                 (A) (A) (A) (A) (A) (A) (A) (A) (A) (A) (A) (A)
                 (A) (A) (A) (A) (A) (A) (A) (A) (A) (A) (A) (A)
                 (A) (A) (A) (A) (A) (A) (A) (A) (A) (A) (A) (A)
                 (A) (A) (A) (A) (A) (A) (A) (A) (A) (A) (A) (A)
                 (A) (A) (A) (A) (A) (A) (A) (A) (A) (A) (A)
 The electronic state is 1-A.
 Alpha  occ. eigenvalues --  -19.18479 -19.16317 -19.13791 -19.11113 -14.31382
 Alpha  occ. eigenvalues --  -10.32472 -10.31553 -10.22664 -10.21629 -10.20545
 Alpha  occ. eigenvalues --  -10.19923 -10.19018 -10.18842 -10.18515 -10.18410
 Alpha  occ. eigenvalues --  -10.18370 -10.17376  -1.13201  -1.09564  -1.04923
 Alpha  occ. eigenvalues --   -1.00113  -0.92647  -0.82366  -0.82259  -0.76424
 Alpha  occ. eigenvalues --   -0.71017  -0.70443  -0.70210  -0.69399  -0.67625
 Alpha  occ. eigenvalues --   -0.62180  -0.59690  -0.58143  -0.57129  -0.51238
 Alpha  occ. eigenvalues --   -0.50930  -0.50047  -0.49610  -0.48120  -0.47868
 Alpha  occ. eigenvalues --   -0.46808  -0.45991  -0.45710  -0.44830  -0.43899
 Alpha  occ. eigenvalues --   -0.43539  -0.42428  -0.42020  -0.40951  -0.40019
 Alpha  occ. eigenvalues --   -0.39819  -0.39739  -0.38965  -0.38604  -0.37629
 Alpha  occ. eigenvalues --   -0.37260  -0.35952  -0.35700  -0.33934  -0.32226
 Alpha  occ. eigenvalues --   -0.31534  -0.31031  -0.29039  -0.26987  -0.26326
 Alpha  occ. eigenvalues --   -0.23648
 Alpha virt. eigenvalues --   -0.06281  -0.04749  -0.01218  -0.00695  -0.00341
 Alpha virt. eigenvalues --   -0.00087   0.01139   0.01445   0.01777   0.01867
 Alpha virt. eigenvalues --    0.02591   0.03159   0.03488   0.03558   0.03928
 Alpha virt. eigenvalues --    0.04001   0.04915   0.04976   0.05132   0.05806
 Alpha virt. eigenvalues --    0.06119   0.06673   0.06909   0.07448   0.07524
 Alpha virt. eigenvalues --    0.07760   0.08431   0.08740   0.09260   0.09773
 Alpha virt. eigenvalues --    0.09914   0.10253   0.10510   0.11042   0.11385
 Alpha virt. eigenvalues --    0.11628   0.11838   0.12312   0.12395   0.12543
 Alpha virt. eigenvalues --    0.12769   0.13136   0.13365   0.13481   0.13855
 Alpha virt. eigenvalues --    0.14011   0.14052   0.14454   0.14607   0.14850
 Alpha virt. eigenvalues --    0.14931   0.15008   0.15235   0.15430   0.15643
 Alpha virt. eigenvalues --    0.16100   0.16333   0.16532   0.17160   0.17393
 Alpha virt. eigenvalues --    0.17646   0.17865   0.18054   0.18173   0.18456
 Alpha virt. eigenvalues --    0.18871   0.19233   0.19860   0.20122   0.20580
 Alpha virt. eigenvalues --    0.20741   0.21082   0.21222   0.21686   0.21834
 Alpha virt. eigenvalues --    0.22134   0.22733   0.23281   0.23671   0.24343
 Alpha virt. eigenvalues --    0.24554   0.25060   0.25439   0.25793   0.26355
 Alpha virt. eigenvalues --    0.26410   0.26893   0.27599   0.27916   0.28230
 Alpha virt. eigenvalues --    0.28672   0.28869   0.29535   0.29705   0.29933
 Alpha virt. eigenvalues --    0.31027   0.31079   0.31353   0.31423   0.31739
 Alpha virt. eigenvalues --    0.32445   0.32678   0.33448   0.33815   0.34312
 Alpha virt. eigenvalues --    0.34548   0.35570   0.35777   0.36753   0.36907
 Alpha virt. eigenvalues --    0.37427   0.37540   0.37939   0.38137   0.39045
 Alpha virt. eigenvalues --    0.39277   0.39450   0.40283   0.40621   0.41237
 Alpha virt. eigenvalues --    0.41714   0.42259   0.43090   0.43372   0.44171
 Alpha virt. eigenvalues --    0.45329   0.45619   0.46582   0.47631   0.48067
 Alpha virt. eigenvalues --    0.48780   0.49307   0.51342   0.52490   0.53569
 Alpha virt. eigenvalues --    0.54026   0.54277   0.54832   0.55273   0.56272
 Alpha virt. eigenvalues --    0.56759   0.57569   0.58472   0.59052   0.59802
 Alpha virt. eigenvalues --    0.60101   0.60367   0.60944   0.61980   0.62448
 Alpha virt. eigenvalues --    0.62789   0.63827   0.64545   0.65777   0.65907
 Alpha virt. eigenvalues --    0.66263   0.66458   0.67061   0.67651   0.67772
 Alpha virt. eigenvalues --    0.68583   0.68738   0.69792   0.70677   0.70867
 Alpha virt. eigenvalues --    0.71481   0.72078   0.72493   0.73087   0.73714
 Alpha virt. eigenvalues --    0.74523   0.74563   0.75587   0.76324   0.76978
 Alpha virt. eigenvalues --    0.77285   0.78666   0.79384   0.80257   0.80715
 Alpha virt. eigenvalues --    0.81540   0.82288   0.84636   0.85732   0.85953
 Alpha virt. eigenvalues --    0.87292   0.88008   0.89344   0.90518   0.91633
 Alpha virt. eigenvalues --    0.92106   0.93340   0.93971   0.95771   0.96660
 Alpha virt. eigenvalues --    0.96812   0.98812   1.01081   1.02621   1.03801
 Alpha virt. eigenvalues --    1.05331   1.05956   1.07179   1.07918   1.10308
 Alpha virt. eigenvalues --    1.11296   1.13944   1.14371   1.15028   1.16220
 Alpha virt. eigenvalues --    1.18340   1.19637   1.20309   1.21381   1.22827
 Alpha virt. eigenvalues --    1.23324   1.23737   1.25462   1.25640   1.27312
 Alpha virt. eigenvalues --    1.28199   1.29743   1.30621   1.32683   1.34583
 Alpha virt. eigenvalues --    1.35331   1.36144   1.37314   1.37483   1.39436
 Alpha virt. eigenvalues --    1.40867   1.42302   1.45212   1.45623   1.46434
 Alpha virt. eigenvalues --    1.46861   1.48451   1.49397   1.49641   1.50809
 Alpha virt. eigenvalues --    1.51260   1.52312   1.52945   1.53671   1.54238
 Alpha virt. eigenvalues --    1.54573   1.55866   1.56308   1.57048   1.57658
 Alpha virt. eigenvalues --    1.58504   1.59642   1.60179   1.60617   1.61115
 Alpha virt. eigenvalues --    1.62370   1.63569   1.64184   1.65073   1.65222
 Alpha virt. eigenvalues --    1.66576   1.66980   1.67224   1.68509   1.70259
 Alpha virt. eigenvalues --    1.70484   1.71506   1.72487   1.72908   1.73723
 Alpha virt. eigenvalues --    1.73968   1.75505   1.76204   1.76740   1.78209
 Alpha virt. eigenvalues --    1.79195   1.80614   1.81819   1.82607   1.82941
 Alpha virt. eigenvalues --    1.85089   1.85383   1.85939   1.86379   1.88330
 Alpha virt. eigenvalues --    1.89913   1.90312   1.92258   1.92531   1.97080
 Alpha virt. eigenvalues --    1.97824   2.00958   2.01185   2.01398   2.02474
 Alpha virt. eigenvalues --    2.03281   2.04391   2.06124   2.08547   2.09306
 Alpha virt. eigenvalues --    2.11418   2.11602   2.12503   2.13496   2.15069
 Alpha virt. eigenvalues --    2.16792   2.17831   2.19913   2.21219   2.23582
 Alpha virt. eigenvalues --    2.24887   2.26515   2.26758   2.29493   2.30864
 Alpha virt. eigenvalues --    2.33011   2.33732   2.34747   2.37558   2.43377
 Alpha virt. eigenvalues --    2.43738   2.45103   2.45339   2.46723   2.46755
 Alpha virt. eigenvalues --    2.48502   2.50021   2.51198   2.51847   2.52740
 Alpha virt. eigenvalues --    2.53300   2.54277   2.55319   2.55677   2.56000
 Alpha virt. eigenvalues --    2.56961   2.57377   2.57564   2.59088   2.61293
 Alpha virt. eigenvalues --    2.62245   2.63824   2.64398   2.65905   2.66872
 Alpha virt. eigenvalues --    2.67533   2.68579   2.70007   2.70245   2.70803
 Alpha virt. eigenvalues --    2.72068   2.73015   2.74170   2.74636   2.75970
 Alpha virt. eigenvalues --    2.77718   2.78877   2.79175   2.80481   2.81404
 Alpha virt. eigenvalues --    2.83528   2.83783   2.85649   2.88094   2.89113
 Alpha virt. eigenvalues --    2.89867   2.92043   2.93057   2.94003   2.94724
 Alpha virt. eigenvalues --    2.96339   2.98158   2.98694   2.99304   3.00244
 Alpha virt. eigenvalues --    3.02281   3.02576   3.05392   3.06608   3.09207
 Alpha virt. eigenvalues --    3.09449   3.12071   3.12473   3.16087   3.20416
 Alpha virt. eigenvalues --    3.21025   3.23543   3.26952   3.28019   3.29409
 Alpha virt. eigenvalues --    3.33153   3.35919   3.38910   3.50447   3.52895
 Alpha virt. eigenvalues --    3.53460   3.57788   3.58977   3.60284   3.69507
 Alpha virt. eigenvalues --    3.70430   3.74320   3.74808   3.76315   3.77161
 Alpha virt. eigenvalues --    3.77526   3.79191   3.79535   3.79673   3.81370
 Alpha virt. eigenvalues --    3.82023   3.82425   3.85769   3.86311   3.93798
 Alpha virt. eigenvalues --    4.07472   4.08019   4.14088   4.18803   4.21982
 Alpha virt. eigenvalues --    4.26353   4.26935   4.31522   4.35016   4.81711
 Alpha virt. eigenvalues --    4.86409   5.05005   5.10106   5.11353   5.13240
 Alpha virt. eigenvalues --    5.22107   5.23285   5.37452   5.41815   5.66565
 Alpha virt. eigenvalues --    5.69272   5.87380   5.90921  23.68775  23.71204
 Alpha virt. eigenvalues --   23.81898  23.83104  23.87151  23.93432  23.95176
 Alpha virt. eigenvalues --   23.96416  23.96760  23.97811  24.14710  24.25805
 Alpha virt. eigenvalues --   35.53506  49.90797  49.91014  49.97868  49.98334
          Condensed to atoms (all electrons):
               1          2          3          4          5          6
     1  C    6.470132   0.672131  -0.880943  -0.704185  -0.015059  -0.067941
     2  C    0.672131  11.387074  -1.777717  -4.426258   0.013177  -0.329816
     3  C   -0.880943  -1.777717   7.923781   0.486857   0.108208   0.123495
     4  C   -0.704185  -4.426258   0.486857  10.467671   0.255252   0.230452
     5  O   -0.015059   0.013177   0.108208   0.255252   7.986874  -0.153371
     6  O   -0.067941  -0.329816   0.123495   0.230452  -0.153371   8.075559
     7  H    0.443414  -0.108328   0.000575  -0.006799   0.000158   0.001545
     8  H    0.411263   0.027637  -0.030038  -0.043050  -0.001806  -0.007750
     9  H    0.324341   0.000381   0.011932   0.022986   0.002234  -0.004033
    10  H   -0.062629  -0.144531   0.501646   0.048228   0.004545   0.002380
    11  H    0.033936   0.017517   0.290025   0.022257  -0.004703  -0.004396
    12  H   -0.040687   0.001894   0.035949  -0.045465  -0.027296   0.278473
    13  C    0.000920   0.000896  -0.000375   0.010443   0.000479  -0.002181
    14  C    0.043753   0.031863  -0.028699   0.087837   0.005932  -0.061351
    15  C   -0.001194  -0.001940  -0.000734  -0.011511  -0.002657   0.003526
    16  C   -0.010875  -0.004955  -0.001529  -0.022847  -0.006010  -0.015990
    17  O   -0.002057  -0.002880   0.002679  -0.018755  -0.007987  -0.002672
    18  O   -0.000592  -0.002340  -0.000073  -0.002616   0.004255   0.010164
    19  C   -0.037675  -0.121102   0.038818   0.041119  -0.059621   0.036981
    20  C    0.010788   0.113739  -0.003249  -0.040472  -0.008324   0.023559
    21  N    0.002247   0.012511  -0.001747  -0.009798   0.003940  -0.005595
    22  C   -0.009267  -0.052112   0.004699   0.015938  -0.006818   0.017802
    23  C    0.000919   0.001080  -0.001297  -0.005248   0.000560  -0.000798
    24  H    0.000030  -0.000121  -0.000018   0.000112   0.000013   0.000047
    25  H    0.000131   0.000078  -0.000178   0.001132  -0.000208  -0.000454
    26  H   -0.000059   0.000197   0.000079  -0.000147  -0.000020  -0.000039
    27  H   -0.000229   0.000592   0.000188  -0.000832  -0.000076  -0.000036
    28  H    0.001929   0.005593  -0.001115  -0.000486  -0.000161  -0.002692
    29  H    0.002999  -0.137101  -0.055740   0.104906   0.080179  -0.067839
    30  H   -0.003820  -0.012839   0.004464   0.012656  -0.013520   0.005741
    31  H    0.000117   0.001051   0.000605  -0.001143   0.000770   0.000049
    32  H   -0.000849  -0.001977   0.000985  -0.001152   0.000745  -0.000728
    33  H   -0.002611  -0.004812   0.002529   0.009004  -0.001021   0.002393
    34  H    0.005388   0.003134  -0.003831  -0.005438   0.003743  -0.005914
    35  H    0.008237   0.050068  -0.009252  -0.012532  -0.019379  -0.000947
    36  H   -0.000013  -0.000275  -0.000070  -0.000367  -0.000086  -0.000001
    37  H   -0.000077  -0.000174   0.000087   0.000051  -0.000032   0.000270
    38  H    0.000091   0.000382  -0.000109  -0.000205   0.000046  -0.000172
               7          8          9         10         11         12
     1  C    0.443414   0.411263   0.324341  -0.062629   0.033936  -0.040687
     2  C   -0.108328   0.027637   0.000381  -0.144531   0.017517   0.001894
     3  C    0.000575  -0.030038   0.011932   0.501646   0.290025   0.035949
     4  C   -0.006799  -0.043050   0.022986   0.048228   0.022257  -0.045465
     5  O    0.000158  -0.001806   0.002234   0.004545  -0.004703  -0.027296
     6  O    0.001545  -0.007750  -0.004033   0.002380  -0.004396   0.278473
     7  H    0.565165  -0.011354  -0.040296  -0.001979   0.002511   0.000009
     8  H   -0.011354   0.545603  -0.056288   0.000455  -0.000188  -0.004110
     9  H   -0.040296  -0.056288   0.584692   0.004053  -0.003642   0.001764
    10  H   -0.001979   0.000455   0.004053   0.542341  -0.045794   0.001432
    11  H    0.002511  -0.000188  -0.003642  -0.045794   0.501872  -0.002109
    12  H    0.000009  -0.004110   0.001764   0.001432  -0.002109   0.411350
    13  C   -0.000007   0.000032   0.000024  -0.000004   0.000035  -0.008276
    14  C    0.001215  -0.000266  -0.002106  -0.000793   0.001427   0.001468
    15  C   -0.000006   0.000015  -0.000979   0.000017  -0.000099   0.007859
    16  C   -0.000106   0.001088   0.002398  -0.000333   0.000153   0.006053
    17  O   -0.000128  -0.000351  -0.000105   0.000145  -0.000221   0.045550
    18  O   -0.000073   0.000160   0.000177   0.000054  -0.000068  -0.022781
    19  C   -0.000520  -0.001066   0.000937  -0.000330  -0.001516   0.114948
    20  C    0.000177   0.000304  -0.000483   0.000468  -0.000383  -0.012078
    21  N    0.000062  -0.000085  -0.000017  -0.000000   0.000080  -0.010940
    22  C   -0.000081   0.000486  -0.000131  -0.000080   0.000083   0.014789
    23  C    0.000019   0.000071  -0.000028  -0.000004   0.000001  -0.001935
    24  H   -0.000001   0.000005   0.000002   0.000000  -0.000001  -0.000274
    25  H    0.000002  -0.000001  -0.000013  -0.000003   0.000007   0.000808
    26  H   -0.000002   0.000000   0.000001   0.000002  -0.000002   0.000084
    27  H    0.000012  -0.000063   0.000123  -0.000000  -0.000002   0.001400
    28  H    0.000108   0.000521  -0.002499  -0.000060   0.000078  -0.000226
    29  H   -0.001118   0.001180   0.002426   0.000194   0.003127  -0.110024
    30  H   -0.000051  -0.000002  -0.000028   0.000075  -0.000536   0.012412
    31  H    0.000008  -0.000014  -0.000003   0.000001  -0.000019  -0.000940
    32  H    0.000012  -0.000114   0.000002  -0.000006  -0.000020  -0.001479
    33  H   -0.000052   0.000049   0.000030   0.000049  -0.000027   0.001934
    34  H    0.000059   0.000003  -0.000016  -0.000090   0.000239  -0.011983
    35  H    0.000200   0.000055  -0.000459  -0.000244  -0.000830   0.003127
    36  H   -0.000001   0.000007  -0.000001  -0.000000   0.000003   0.000382
    37  H   -0.000001  -0.000010   0.000003   0.000003  -0.000009  -0.000289
    38  H    0.000001   0.000006  -0.000002   0.000000   0.000002  -0.000209
              13         14         15         16         17         18
     1  C    0.000920   0.043753  -0.001194  -0.010875  -0.002057  -0.000592
     2  C    0.000896   0.031863  -0.001940  -0.004955  -0.002880  -0.002340
     3  C   -0.000375  -0.028699  -0.000734  -0.001529   0.002679  -0.000073
     4  C    0.010443   0.087837  -0.011511  -0.022847  -0.018755  -0.002616
     5  O    0.000479   0.005932  -0.002657  -0.006010  -0.007987   0.004255
     6  O   -0.002181  -0.061351   0.003526  -0.015990  -0.002672   0.010164
     7  H   -0.000007   0.001215  -0.000006  -0.000106  -0.000128  -0.000073
     8  H    0.000032  -0.000266   0.000015   0.001088  -0.000351   0.000160
     9  H    0.000024  -0.002106  -0.000979   0.002398  -0.000105   0.000177
    10  H   -0.000004  -0.000793   0.000017  -0.000333   0.000145   0.000054
    11  H    0.000035   0.001427  -0.000099   0.000153  -0.000221  -0.000068
    12  H   -0.008276   0.001468   0.007859   0.006053   0.045550  -0.022781
    13  C    6.570961   0.057772  -1.021985  -0.064020  -0.005717   0.018451
    14  C    0.057772   9.979181  -0.001850  -3.800222   0.088298  -0.502258
    15  C   -1.021985  -0.001850   7.847017  -1.071098   0.064902  -0.003159
    16  C   -0.064020  -3.800222  -1.071098  11.067551   0.198448   0.162088
    17  O   -0.005717   0.088298   0.064902   0.198448   7.938121  -0.130433
    18  O    0.018451  -0.502258  -0.003159   0.162088  -0.130433   8.251916
    19  C    0.040436  -0.420356  -0.109439   0.618158   0.033207  -0.044863
    20  C   -0.090871  -0.032804   0.093662  -0.343868  -0.080505   0.130410
    21  N   -0.002662   0.045841  -0.000341  -0.000927   0.004972   0.009809
    22  C   -0.002408   0.000733   0.002971   0.035082   0.007787  -0.018969
    23  C   -0.003767   0.022379   0.000707  -0.015961   0.001880   0.004553
    24  H    0.384686  -0.074988   0.008667   0.039083   0.001920   0.006119
    25  H    0.378743   0.037984   0.004245  -0.072167   0.004026  -0.001041
    26  H    0.390264  -0.051490   0.028374  -0.005283  -0.004036  -0.006762
    27  H   -0.014823  -0.053956   0.392691   0.024065  -0.002018  -0.006371
    28  H    0.010196  -0.005586   0.399602  -0.041468   0.004098   0.000467
    29  H    0.038008  -0.076616  -0.056178  -0.174566   0.008306   0.119915
    30  H   -0.000682  -0.020389  -0.006697   0.049498   0.003439  -0.101666
    31  H   -0.005118   0.013007  -0.002571   0.011031  -0.000100   0.008011
    32  H   -0.012797  -0.043682   0.005302   0.002271  -0.001413  -0.028132
    33  H    0.000242  -0.001894  -0.000097   0.000257  -0.000424  -0.001427
    34  H    0.000381   0.003976  -0.000262  -0.001309  -0.001334   0.001117
    35  H   -0.001321   0.000023   0.002513  -0.021742  -0.004024   0.013011
    36  H    0.000825  -0.002849  -0.000303   0.004032   0.000004   0.000806
    37  H   -0.000009   0.001161   0.000219  -0.008717   0.000168   0.000519
    38  H   -0.000063  -0.000214  -0.000102   0.000690  -0.000011   0.000707
              19         20         21         22         23         24
     1  C   -0.037675   0.010788   0.002247  -0.009267   0.000919   0.000030
     2  C   -0.121102   0.113739   0.012511  -0.052112   0.001080  -0.000121
     3  C    0.038818  -0.003249  -0.001747   0.004699  -0.001297  -0.000018
     4  C    0.041119  -0.040472  -0.009798   0.015938  -0.005248   0.000112
     5  O   -0.059621  -0.008324   0.003940  -0.006818   0.000560   0.000013
     6  O    0.036981   0.023559  -0.005595   0.017802  -0.000798   0.000047
     7  H   -0.000520   0.000177   0.000062  -0.000081   0.000019  -0.000001
     8  H   -0.001066   0.000304  -0.000085   0.000486   0.000071   0.000005
     9  H    0.000937  -0.000483  -0.000017  -0.000131  -0.000028   0.000002
    10  H   -0.000330   0.000468  -0.000000  -0.000080  -0.000004   0.000000
    11  H   -0.001516  -0.000383   0.000080   0.000083   0.000001  -0.000001
    12  H    0.114948  -0.012078  -0.010940   0.014789  -0.001935  -0.000274
    13  C    0.040436  -0.090871  -0.002662  -0.002408  -0.003767   0.384686
    14  C   -0.420356  -0.032804   0.045841   0.000733   0.022379  -0.074988
    15  C   -0.109439   0.093662  -0.000341   0.002971   0.000707   0.008667
    16  C    0.618158  -0.343868  -0.000927   0.035082  -0.015961   0.039083
    17  O    0.033207  -0.080505   0.004972   0.007787   0.001880   0.001920
    18  O   -0.044863   0.130410   0.009809  -0.018969   0.004553   0.006119
    19  C    8.584913  -1.789868  -0.369044   0.137129  -0.315206   0.000599
    20  C   -1.789868   8.074432   0.045060  -0.401736  -0.164200   0.001594
    21  N   -0.369044   0.045060   6.979467   0.313937   0.400403   0.000014
    22  C    0.137129  -0.401736   0.313937   5.512792  -0.161980  -0.000192
    23  C   -0.315206  -0.164200   0.400403  -0.161980   5.373673   0.000119
    24  H    0.000599   0.001594   0.000014  -0.000192   0.000119   0.528599
    25  H    0.005223  -0.004812  -0.005566  -0.001575  -0.003046  -0.028185
    26  H   -0.014630   0.012774   0.000347   0.000061   0.000477  -0.031429
    27  H    0.006200  -0.003290   0.000002   0.000094  -0.000069   0.000539
    28  H   -0.002630  -0.001649  -0.000074   0.000042  -0.000043  -0.000316
    29  H   -0.282879  -0.151921   0.082521  -0.116549   0.006227   0.001566
    30  H    0.539881  -0.089849   0.005145   0.008975   0.001549  -0.000339
    31  H   -0.125512   0.453269  -0.066391   0.024400   0.007066   0.000010
    32  H    0.129424   0.275268  -0.065962  -0.036236  -0.023497  -0.000017
    33  H    0.032757  -0.001772  -0.066461   0.418772  -0.006021  -0.000011
    34  H    0.011273  -0.041038  -0.050936   0.342398  -0.028351   0.000046
    35  H   -0.071293   0.236695  -0.099629   0.285654   0.003576   0.000069
    36  H    0.009564   0.023833  -0.075353   0.017692   0.388882   0.000036
    37  H    0.033654  -0.018041  -0.057932  -0.033610   0.359223  -0.000017
    38  H   -0.025085   0.028837  -0.060554   0.001438   0.419277   0.000009
              25         26         27         28         29         30
     1  C    0.000131  -0.000059  -0.000229   0.001929   0.002999  -0.003820
     2  C    0.000078   0.000197   0.000592   0.005593  -0.137101  -0.012839
     3  C   -0.000178   0.000079   0.000188  -0.001115  -0.055740   0.004464
     4  C    0.001132  -0.000147  -0.000832  -0.000486   0.104906   0.012656
     5  O   -0.000208  -0.000020  -0.000076  -0.000161   0.080179  -0.013520
     6  O   -0.000454  -0.000039  -0.000036  -0.002692  -0.067839   0.005741
     7  H    0.000002  -0.000002   0.000012   0.000108  -0.001118  -0.000051
     8  H   -0.000001   0.000000  -0.000063   0.000521   0.001180  -0.000002
     9  H   -0.000013   0.000001   0.000123  -0.002499   0.002426  -0.000028
    10  H   -0.000003   0.000002  -0.000000  -0.000060   0.000194   0.000075
    11  H    0.000007  -0.000002  -0.000002   0.000078   0.003127  -0.000536
    12  H    0.000808   0.000084   0.001400  -0.000226  -0.110024   0.012412
    13  C    0.378743   0.390264  -0.014823   0.010196   0.038008  -0.000682
    14  C    0.037984  -0.051490  -0.053956  -0.005586  -0.076616  -0.020389
    15  C    0.004245   0.028374   0.392691   0.399602  -0.056178  -0.006697
    16  C   -0.072167  -0.005283   0.024065  -0.041468  -0.174566   0.049498
    17  O    0.004026  -0.004036  -0.002018   0.004098   0.008306   0.003439
    18  O   -0.001041  -0.006762  -0.006371   0.000467   0.119915  -0.101666
    19  C    0.005223  -0.014630   0.006200  -0.002630  -0.282879   0.539881
    20  C   -0.004812   0.012774  -0.003290  -0.001649  -0.151921  -0.089849
    21  N   -0.005566   0.000347   0.000002  -0.000074   0.082521   0.005145
    22  C   -0.001575   0.000061   0.000094   0.000042  -0.116549   0.008975
    23  C   -0.003046   0.000477  -0.000069  -0.000043   0.006227   0.001549
    24  H   -0.028185  -0.031429   0.000539  -0.000316   0.001566  -0.000339
    25  H    0.571253  -0.039443   0.003535  -0.002491  -0.001718   0.000361
    26  H   -0.039443   0.527491  -0.000445   0.000667   0.001214   0.000912
    27  H    0.003535  -0.000445   0.523207  -0.036353  -0.003943   0.000507
    28  H   -0.002491   0.000667  -0.036353   0.496583  -0.000901   0.000148
    29  H   -0.001718   0.001214  -0.003943  -0.000901   1.710852  -0.131887
    30  H    0.000361   0.000912   0.000507   0.000148  -0.131887   0.541402
    31  H   -0.003438   0.000680  -0.000299  -0.000015  -0.000318  -0.022718
    32  H   -0.003382   0.000297   0.000454  -0.000190  -0.008185   0.019546
    33  H   -0.000100   0.000001   0.000010  -0.000004  -0.005891   0.002235
    34  H   -0.000025   0.000015  -0.000048   0.000008   0.044146   0.000476
    35  H    0.000670  -0.000177   0.000028   0.000066  -0.088690  -0.007887
    36  H    0.000338   0.000015   0.000005  -0.000003   0.001858   0.000213
    37  H    0.000254  -0.000022   0.000000   0.000010   0.009299   0.001888
    38  H   -0.000118   0.000037  -0.000005  -0.000001   0.002553  -0.001675
              31         32         33         34         35         36
     1  C    0.000117  -0.000849  -0.002611   0.005388   0.008237  -0.000013
     2  C    0.001051  -0.001977  -0.004812   0.003134   0.050068  -0.000275
     3  C    0.000605   0.000985   0.002529  -0.003831  -0.009252  -0.000070
     4  C   -0.001143  -0.001152   0.009004  -0.005438  -0.012532  -0.000367
     5  O    0.000770   0.000745  -0.001021   0.003743  -0.019379  -0.000086
     6  O    0.000049  -0.000728   0.002393  -0.005914  -0.000947  -0.000001
     7  H    0.000008   0.000012  -0.000052   0.000059   0.000200  -0.000001
     8  H   -0.000014  -0.000114   0.000049   0.000003   0.000055   0.000007
     9  H   -0.000003   0.000002   0.000030  -0.000016  -0.000459  -0.000001
    10  H    0.000001  -0.000006   0.000049  -0.000090  -0.000244  -0.000000
    11  H   -0.000019  -0.000020  -0.000027   0.000239  -0.000830   0.000003
    12  H   -0.000940  -0.001479   0.001934  -0.011983   0.003127   0.000382
    13  C   -0.005118  -0.012797   0.000242   0.000381  -0.001321   0.000825
    14  C    0.013007  -0.043682  -0.001894   0.003976   0.000023  -0.002849
    15  C   -0.002571   0.005302  -0.000097  -0.000262   0.002513  -0.000303
    16  C    0.011031   0.002271   0.000257  -0.001309  -0.021742   0.004032
    17  O   -0.000100  -0.001413  -0.000424  -0.001334  -0.004024   0.000004
    18  O    0.008011  -0.028132  -0.001427   0.001117   0.013011   0.000806
    19  C   -0.125512   0.129424   0.032757   0.011273  -0.071293   0.009564
    20  C    0.453269   0.275268  -0.001772  -0.041038   0.236695   0.023833
    21  N   -0.066391  -0.065962  -0.066461  -0.050936  -0.099629  -0.075353
    22  C    0.024400  -0.036236   0.418772   0.342398   0.285654   0.017692
    23  C    0.007066  -0.023497  -0.006021  -0.028351   0.003576   0.388882
    24  H    0.000010  -0.000017  -0.000011   0.000046   0.000069   0.000036
    25  H   -0.003438  -0.003382  -0.000100  -0.000025   0.000670   0.000338
    26  H    0.000680   0.000297   0.000001   0.000015  -0.000177   0.000015
    27  H   -0.000299   0.000454   0.000010  -0.000048   0.000028   0.000005
    28  H   -0.000015  -0.000190  -0.000004   0.000008   0.000066  -0.000003
    29  H   -0.000318  -0.008185  -0.005891   0.044146  -0.088690   0.001858
    30  H   -0.022718   0.019546   0.002235   0.000476  -0.007887   0.000213
    31  H    0.609225  -0.081038   0.000105  -0.009182   0.003348  -0.004410
    32  H   -0.081038   0.637175  -0.007996   0.042762  -0.001096   0.000432
    33  H    0.000105  -0.007996   0.558888  -0.053707  -0.035390   0.002371
    34  H   -0.009182   0.042762  -0.053707   0.657653  -0.058618  -0.003226
    35  H    0.003348  -0.001096  -0.035390  -0.058618   0.701344  -0.002829
    36  H   -0.004410   0.000432   0.002371  -0.003226  -0.002829   0.593243
    37  H   -0.003382   0.027622  -0.007330   0.040857  -0.001789  -0.046376
    38  H    0.003178  -0.006397   0.003892  -0.005768   0.002471  -0.022896
              37         38
     1  C   -0.000077   0.000091
     2  C   -0.000174   0.000382
     3  C    0.000087  -0.000109
     4  C    0.000051  -0.000205
     5  O   -0.000032   0.000046
     6  O    0.000270  -0.000172
     7  H   -0.000001   0.000001
     8  H   -0.000010   0.000006
     9  H    0.000003  -0.000002
    10  H    0.000003   0.000000
    11  H   -0.000009   0.000002
    12  H   -0.000289  -0.000209
    13  C   -0.000009  -0.000063
    14  C    0.001161  -0.000214
    15  C    0.000219  -0.000102
    16  C   -0.008717   0.000690
    17  O    0.000168  -0.000011
    18  O    0.000519   0.000707
    19  C    0.033654  -0.025085
    20  C   -0.018041   0.028837
    21  N   -0.057932  -0.060554
    22  C   -0.033610   0.001438
    23  C    0.359223   0.419277
    24  H   -0.000017   0.000009
    25  H    0.000254  -0.000118
    26  H   -0.000022   0.000037
    27  H    0.000000  -0.000005
    28  H    0.000010  -0.000001
    29  H    0.009299   0.002553
    30  H    0.001888  -0.001675
    31  H   -0.003382   0.003178
    32  H    0.027622  -0.006397
    33  H   -0.007330   0.003892
    34  H    0.040857  -0.005768
    35  H   -0.001789   0.002471
    36  H   -0.046376  -0.022896
    37  H    0.636457  -0.054158
    38  H   -0.054158   0.569964
 Mulliken charges:
               1
     1  C   -0.592005
     2  C    0.788280
     3  C   -0.740887
     4  C   -0.457596
     5  O   -0.142952
     6  O   -0.077718
     7  H    0.155650
     8  H    0.167619
     9  H    0.152624
    10  H    0.150795
    11  H    0.191212
    12  H    0.359417
    13  C   -0.666710
    14  C    0.758518
    15  C   -0.569085
    16  C   -0.537953
    17  O   -0.142779
    18  O    0.130917
    19  C   -0.622586
    20  C   -0.243654
    21  N    0.043657
    22  C   -0.322009
    23  C   -0.261192
    24  H    0.162025
    25  H    0.159173
    26  H    0.189996
    27  H    0.169207
    28  H    0.178847
    29  H    0.250586
    30  H    0.203061
    31  H    0.190679
    32  H    0.184050
    33  H    0.161531
    34  H    0.123401
    35  H    0.126972
    36  H    0.114519
    37  H    0.120232
    38  H    0.144158
 Sum of Mulliken charges =  -0.00000
 Mulliken charges with hydrogens summed into heavy atoms:
               1
     1  C   -0.116112
     2  C    0.788280
     3  C   -0.398879
     4  C   -0.457596
     5  O   -0.142952
     6  O    0.281698
    13  C   -0.155516
    14  C    0.758518
    15  C   -0.221032
    16  C   -0.537953
    17  O   -0.142779
    18  O    0.130917
    19  C   -0.168939
    20  C    0.131075
    21  N    0.043657
    22  C    0.089895
    23  C    0.117717
 DipInt: DoE/N= T F RetVal/Mat= T F Init=T NMatP=  1 IDeriv=0 Min/MaxMlt=  0  4
 Entering OneElI...
 OneElI was handed 25769067012 working-precision words.
 Multipole integrals L=0 to 4 MinM= 0 MaxM= 0.
 Requested accuracy = 0.1000D-12
 ShPair: Thresh= 1.00D-13 NBox=     0 BxSize= 0.00D+00 RnKept= 2.07D+01
         NSMCal=                21528 NSMKep=               17654
 PrmmSu-InSpLW:  IPartL=    0 NPrtUS=    1 NPrtUL=    1 DoSpLW=F IThBeg=    0 IThEnd=    0 NThAct=    1.
 PrsmSu:  NPrtUS=   1 ThrOK=F IAlg=1 NPAlg=1 LenDen=           0 ISkipM=0 DoSpLW=F IThBeg=    0 IThEnd=    0.
 Prism:   IPart=     0 DynPar=F LinDyn=F Incr=         176.
 PRISM was handed 25767973645 working-precision words and 17654 shell-pairs
 IPart=  0 NShTot=       17654 NBatch=         142 AvBLen=       124.3
 PrsmSu-ThDecC:  IPartSL=    0    0 NPrtUSL=    1    1 IThBeg=    0 IThEnd=    0 CPU=   -1 GPU=   -1 NThAct=    1.
 PrSmSu:  NxtVal=            177.
 Electronic moments (au):
       -132.00000000         -0.31871831         -0.46607272         -0.30051299
      -3488.49874630      -2183.94695190       -374.65886001          1.08865494
          0.29582619         -2.13919276     -10273.50591755       -671.66428898
        -46.60545600       7073.82937055       1309.78821483       -299.87607848
       -614.70604847        -86.67288982        813.14396869       -792.01145215
    -198349.53824704     -93320.57176039      -2883.76640283       -870.91415259
      -2687.82985388       3180.52912169       3945.99203122         23.60819383
       -126.12139774     -43532.72765314     -10958.22666850      -3586.47870263
      -2168.15342106      -1612.21711479        594.45486580
 Electronic spatial extent (au):  <R**2>=           6047.1046
 DipInt: DoE/N= F T RetVal/Mat= T F Init=T NMatP=  1 IDeriv=0 Min/MaxMlt=  0  4
 Nuclear    moments (au):
        132.00000000          0.00000000         -0.00000000         -0.00000000
       3424.95429116       2112.29382155        289.78881913         -0.00000000
          0.00000000         -0.00000000      10345.67327443        633.43417139
         51.67980073      -7095.81468100      -1338.50965358        304.41897537
        610.12950235         94.71822893       -825.82063750        805.71361429
     187206.07052316      85901.66507575       1574.28041728        944.73695936
       2898.62148853      -3074.20932122      -4013.34476414        -46.51466834
        126.58373568      40239.02018320       8577.58091713       1924.79204556
       2246.71007272       1645.68605244       -578.42027888
 Total      moments (au):
         -0.00000000         -0.31871831         -0.46607272         -0.30051299
        -63.54445514        -71.65313035        -84.87004087          1.08865494
          0.29582619         -2.13919276         72.16735688        -38.23011759
          5.07434473        -21.98531046        -28.72143875          4.54289689
         -4.57654612          8.04533911        -12.67666881         13.70216214
     -11143.46772388      -7418.90668464      -1309.48598556         73.82280677
        210.79163465        106.31980047        -67.35273292        -22.90647451
          0.46233794      -3293.70746994      -2380.64575137      -1661.68665706
         78.55665166         33.46893765         16.03458692
 Traceless Quadrup. (au):
          9.81142031          1.70274510        -11.51416542          1.08865494
          0.29582619         -2.13919276
 Charge=             -0.0000 electrons
 Dipole moment (field-independent basis, Debye):
    X=             -0.8101    Y=             -1.1846    Z=             -0.7638  Tot=              1.6258
 Quadrupole moment (field-independent basis, Debye-Ang):
   XX=            -85.4695   YY=            -96.3759   ZZ=           -114.1531
   XY=              1.4643   XZ=              0.3979   YZ=             -2.8773
 Traceless Quadrupole moment (field-independent basis, Debye-Ang):
   XX=             13.1967   YY=              2.2903   ZZ=            -15.4869
   XY=              1.4643   XZ=              0.3979   YZ=             -2.8773
 Octapole moment (field-independent basis, Debye-Ang**2):
  XXX=             51.3659  YYY=            -27.2107  ZZZ=              3.6117  XYY=            -15.6483
  XXY=            -20.4428  XXZ=              3.2335  XZZ=             -3.2574  YZZ=              5.7264
  YYZ=             -9.0228  XYZ=              9.7527
 Hexadecapole moment (field-independent basis, Debye-Ang**3):
 XXXX=          -4197.1643 YYYY=          -2794.3160 ZZZZ=           -493.2152 XXXY=             27.8052
 XXXZ=             79.3942 YYYX=             40.0451 YYYZ=            -25.3683 ZZZX=             -8.6277
 ZZZY=              0.1741 XXYY=          -1240.5682 XXZZ=           -896.6653 YYZZ=           -625.8709
 XXYZ=             29.5882 YYXZ=             12.6060 ZZXY=              6.0394
 N-N= 1.243203418784D+03 E-N=-4.414417095773D+03  KE= 8.222779222344D+02
 Entering OneElI...
 OneElI was handed 25769228497 working-precision words.
 Calculate electrostatic properties
    NBasis =   521  MinDer = 0  MaxDer = 0
    NGrid  =    38  NMatD  =   1
 Requested accuracy = 0.1000D-12
 ShPair: Thresh= 1.00D-13 NBox=     0 BxSize= 0.00D+00 RnKept= 2.07D+01
         NSMCal=                21528 NSMKep=               16149
 PrmmSu-InSpLW:  IPartL=    0 NPrtUS=   48 NPrtUL=    1 DoSpLW=F IThBeg=    0 IThEnd=   47 NThAct=   48.
 PrsmSu:  NPrtUS=  48 ThrOK=T IAlg=1 NPAlg=1 LenDen=           0 ISkipM=0 DoSpLW=F IThBeg=    0 IThEnd=   47.
 Prism:   IPart=     0 DynPar=F LinDyn=F Incr=         127.
 PRISM was handed   536547519 working-precision words and 16149 shell-pairs
 PRISM was handed   536547519 working-precision words and 16149 shell-pairs
 PRISM was handed   536547519 working-precision words and 16149 shell-pairs
 PRISM was handed   536547519 working-precision words and 16149 shell-pairs
 PRISM was handed   536547519 working-precision words and 16149 shell-pairs
 PRISM was handed   536547519 working-precision words and 16149 shell-pairs
 PRISM was handed   536547519 working-precision words and 16149 shell-pairs
 PRISM was handed   536547519 working-precision words and 16149 shell-pairs
 PRISM was handed   536547519 working-precision words and 16149 shell-pairs
 PRISM was handed   536547519 working-precision words and 16149 shell-pairs
 PRISM was handed   536547519 working-precision words and 16149 shell-pairs
 PRISM was handed   536547519 working-precision words and 16149 shell-pairs
 PRISM was handed   536547519 working-precision words and 16149 shell-pairs
 PRISM was handed   536547519 working-precision words and 16149 shell-pairs
 PRISM was handed   536547519 working-precision words and 16149 shell-pairs
 PRISM was handed   536547519 working-precision words and 16149 shell-pairs
 PRISM was handed   536547519 working-precision words and 16149 shell-pairs
 PRISM was handed   536547519 working-precision words and 16149 shell-pairs
 PRISM was handed   536547519 working-precision words and 16149 shell-pairs
[...]
 **** Fit       0.008932
 **** Fit       0.009614
 **** Fit       0.010577
 **** Fit       0.012096
 **** Fit       0.014260
 **** Fit       0.016725
 **** Fit       0.018544
 **** Fit       0.018596
 **** Fit       0.016582
 **** Fit       0.013350
 **** Fit       0.010033
 **** Fit       0.007260
 **** Fit       0.005144
 **** Fit       0.003570
 **** Fit       0.002388
 **** Fit       0.002409
 **** Fit       0.002943
 **** Fit       0.003592
 **** Fit       0.004345
 **** Fit       0.005155
 **** Fit       0.005947
 **** Fit       0.006654
 **** Fit       0.007284
 **** Fit       0.007946
 **** Fit       0.008818
 **** Fit       0.010062
 **** Fit       0.011704
 **** Fit       0.013470
 **** Fit       0.014715
 **** Fit       0.014721
 **** Fit       0.013300
 **** Fit       0.010978
 **** Fit       0.008499
 **** Fit       0.006328
 **** Fit       0.004596
 **** Fit       0.003255
 **** Fit       0.002213
 **** Fit       0.002564
 **** Fit       0.003039
 **** Fit       0.003575
 **** Fit       0.004146
 **** Fit       0.004713
 **** Fit       0.005247
 **** Fit       0.005755
 **** Fit       0.006299
 **** Fit       0.006974
 **** Fit       0.007857
 **** Fit       0.008937
 **** Fit       0.010025
 **** Fit       0.010746
 **** Fit       0.010714
 **** Fit       0.009824
 **** Fit       0.008344
 **** Fit       0.006685
 **** Fit       0.005144
 **** Fit       0.003839
 **** Fit       0.002773
 **** Fit       0.001907
 **** Fit       0.002565
 **** Fit       0.002936
 **** Fit       0.003325
 **** Fit       0.003713
 **** Fit       0.004087
 **** Fit       0.004452
 **** Fit       0.004840
 **** Fit       0.005296
 **** Fit       0.005851
 **** Fit       0.006484
 **** Fit       0.007084
 **** Fit       0.007455
 **** Fit       0.007408
 **** Fit       0.006886
 **** Fit       0.006006
 **** Fit       0.004969
 **** Fit       0.003942
 **** Fit       0.003015
 **** Fit       0.002212
 **** Fit       0.002678
 **** Fit       0.002928
 **** Fit       0.003168
 **** Fit       0.003401
 **** Fit       0.003640
 **** Fit       0.003908
 **** Fit       0.004215
 **** Fit       0.004548
 **** Fit       0.004846
 **** Fit       0.005016
 **** Fit       0.004966
 **** Fit       0.004665
 **** Fit       0.004156
 **** Fit       0.003528
 **** Fit       0.002867
 **** Fit       0.002231
 **** Fit       0.002834
 **** Fit       0.002976
 **** Fit       0.003123
 **** Fit       0.003249
 **** Fit       0.003308
 **** Fit       0.003258
 **** Fit       0.003078
 **** Fit       0.002780
 **** Fit       0.002399
 **** Fit       0.001977
 **** Fit       0.002123
 **** Fit       0.002152
 **** Fit       0.002151
 **** Fit       0.002098
 **** Fit       0.001979
 **** Fit       0.001794
 **** Fit       0.001554
 **** Fit       0.002610
 **** Fit       0.002752
 **** Fit       0.002817
 **** Fit       0.002753
 **** Fit       0.003126
 **** Fit       0.003441
 **** Fit       0.003666
 **** Fit       0.003788
 **** Fit       0.003813
 **** Fit       0.003763
 **** Fit       0.003504
 **** Fit       0.003297
 **** Fit       0.003025
 **** Fit       0.002679
 **** Fit       0.002263
 **** Fit       0.001797
 **** Fit       0.002899
 **** Fit       0.003433
 **** Fit       0.003953
 **** Fit       0.004401
 **** Fit       0.004729
 **** Fit       0.004918
 **** Fit       0.004987
 **** Fit       0.004975
 **** Fit       0.004917
 **** Fit       0.004819
 **** Fit       0.004661
 **** Fit       0.004405
 **** Fit       0.004021
 **** Fit       0.003511
 **** Fit       0.002905
 **** Fit       0.002256
 **** Fit       0.001615
 **** Fit       0.002807
 **** Fit       0.003445
 **** Fit       0.004140
 **** Fit       0.004830
 **** Fit       0.005435
 **** Fit       0.005882
 **** Fit       0.006148
 **** Fit       0.006269
 **** Fit       0.006316
 **** Fit       0.006344
 **** Fit       0.006359
 **** Fit       0.006309
 **** Fit       0.006113
 **** Fit       0.005703
 **** Fit       0.005069
 **** Fit       0.004267
 **** Fit       0.003394
 **** Fit       0.002536
 **** Fit       0.001754
 **** Fit       0.002524
 **** Fit       0.003171
 **** Fit       0.003937
 **** Fit       0.004791
 **** Fit       0.005657
 **** Fit       0.006425
 **** Fit       0.006997
 **** Fit       0.007346
 **** Fit       0.007535
 **** Fit       0.007674
 **** Fit       0.007845
 **** Fit       0.008051
 **** Fit       0.008197
 **** Fit       0.008129
 **** Fit       0.007712
 **** Fit       0.006922
 **** Fit       0.005859
 **** Fit       0.004687
 **** Fit       0.003553
 **** Fit       0.002542
 **** Fit       0.001683
 **** Fit       0.002721
 **** Fit       0.003438
 **** Fit       0.004301
 **** Fit       0.005279
 **** Fit       0.006287
 **** Fit       0.007193
 **** Fit       0.007879
 **** Fit       0.008317
 **** Fit       0.008597
 **** Fit       0.008870
 **** Fit       0.009249
 **** Fit       0.009733
 **** Fit       0.010171
 **** Fit       0.010308
 **** Fit       0.009916
 **** Fit       0.008943
 **** Fit       0.007559
 **** Fit       0.006030
 **** Fit       0.004579
 **** Fit       0.003318
 **** Fit       0.002274
 **** Fit       0.002824
 **** Fit       0.003568
 **** Fit       0.004471
 **** Fit       0.005506
 **** Fit       0.006582
 **** Fit       0.007565
 **** Fit       0.008331
 **** Fit       0.008857
 **** Fit       0.009252
 **** Fit       0.009696
 **** Fit       0.010325
 **** Fit       0.011133
 **** Fit       0.011917
 **** Fit       0.012312
 **** Fit       0.011974
 **** Fit       0.010824
 **** Fit       0.009114
 **** Fit       0.007231
 **** Fit       0.005476
 **** Fit       0.003987
 **** Fit       0.002780
 **** Fit       0.002823
 **** Fit       0.003545
 **** Fit       0.004421
 **** Fit       0.005426
 **** Fit       0.006479
 **** Fit       0.007457
 **** Fit       0.008252
 **** Fit       0.008850
 **** Fit       0.009365
 **** Fit       0.009980
 **** Fit       0.010836
 **** Fit       0.011923
 **** Fit       0.013002
 **** Fit       0.013625
 **** Fit       0.013358
 **** Fit       0.012097
 **** Fit       0.010162
 **** Fit       0.008037
 **** Fit       0.006081
 **** Fit       0.004445
 **** Fit       0.003136
 **** Fit       0.002104
 **** Fit       0.002728
 **** Fit       0.003385
 **** Fit       0.004177
 **** Fit       0.005079
 **** Fit       0.006027
 **** Fit       0.006925
 **** Fit       0.007693
 **** Fit       0.008328
 **** Fit       0.008931
 **** Fit       0.009662
 **** Fit       0.010644
 **** Fit       0.011857
 **** Fit       0.013057
 **** Fit       0.013783
 **** Fit       0.013578
 **** Fit       0.012336
 **** Fit       0.010390
 **** Fit       0.008243
 **** Fit       0.006266
 **** Fit       0.004613
 **** Fit       0.003291
 **** Fit       0.002247
 **** Fit       0.003130
 **** Fit       0.003802
 **** Fit       0.004559
 **** Fit       0.005356
 **** Fit       0.006127
 **** Fit       0.006819
 **** Fit       0.007440
 **** Fit       0.008068
 **** Fit       0.008819
 **** Fit       0.009783
 **** Fit       0.010929
 **** Fit       0.012036
 **** Fit       0.012702
 **** Fit       0.012539
 **** Fit       0.011454
 **** Fit       0.009730
 **** Fit       0.007802
 **** Fit       0.006001
 **** Fit       0.004472
 **** Fit       0.003232
 **** Fit       0.002827
 **** Fit       0.003369
 **** Fit       0.003973
 **** Fit       0.004607
 **** Fit       0.005232
 **** Fit       0.005820
 **** Fit       0.006377
 **** Fit       0.006956
 **** Fit       0.007634
 **** Fit       0.008460
 **** Fit       0.009394
 **** Fit       0.010262
 **** Fit       0.010765
 **** Fit       0.010626
 **** Fit       0.009777
 **** Fit       0.008418
 **** Fit       0.006865
 **** Fit       0.005373
 **** Fit       0.004069
 **** Fit       0.002983
 **** Fit       0.002937
 **** Fit       0.003400
 **** Fit       0.003884
 **** Fit       0.004368
 **** Fit       0.004835
 **** Fit       0.005294
 **** Fit       0.005775
 **** Fit       0.006319
 **** Fit       0.006948
 **** Fit       0.007622
 **** Fit       0.008217
 **** Fit       0.008540
 **** Fit       0.008417
 **** Fit       0.007807
 **** Fit       0.006827
 **** Fit       0.005678
 **** Fit       0.004533
 **** Fit       0.003495
 **** Fit       0.002597
 **** Fit       0.003241
 **** Fit       0.003598
 **** Fit       0.003948
 **** Fit       0.004296
 **** Fit       0.004657
 **** Fit       0.005050
 **** Fit       0.005481
 **** Fit       0.005919
 **** Fit       0.006284
 **** Fit       0.006462
 **** Fit       0.006356
 **** Fit       0.005937
 **** Fit       0.005270
 **** Fit       0.004466
 **** Fit       0.003635
 **** Fit       0.002848
 **** Fit       0.003935
 **** Fit       0.004202
 **** Fit       0.004459
 **** Fit       0.004658
 **** Fit       0.004738
 **** Fit       0.004645
 **** Fit       0.004362
 **** Fit       0.003919
 **** Fit       0.003373
 **** Fit       0.002787
 **** Fit       0.003164
 **** Fit       0.003295
 **** Fit       0.003386
 **** Fit       0.003404
 **** Fit       0.003320
 **** Fit       0.003125
 **** Fit       0.002828
 **** Fit       0.002458
 **** Fit       0.002416
 **** Fit       0.002338
 **** Fit       0.003459
 **** Fit       0.003814
 **** Fit       0.004091
 **** Fit       0.004280
 **** Fit       0.004387
 **** Fit       0.004219
 **** Fit       0.004000
 **** Fit       0.003678
 **** Fit       0.003254
 **** Fit       0.002751
 **** Fit       0.003057
 **** Fit       0.003579
 **** Fit       0.004091
 **** Fit       0.004546
 **** Fit       0.004910
 **** Fit       0.005169
 **** Fit       0.005336
 **** Fit       0.005438
 **** Fit       0.005498
 **** Fit       0.005510
 **** Fit       0.005444
 **** Fit       0.005257
 **** Fit       0.004913
 **** Fit       0.004411
 **** Fit       0.003785
 **** Fit       0.003094
 **** Fit       0.002396
 **** Fit       0.003428
 **** Fit       0.004046
 **** Fit       0.004660
 **** Fit       0.005215
 **** Fit       0.005666
 **** Fit       0.006000
 **** Fit       0.006239
 **** Fit       0.006425
 **** Fit       0.006587
 **** Fit       0.006715
 **** Fit       0.006755
 **** Fit       0.006630
 **** Fit       0.006277
 **** Fit       0.005687
 **** Fit       0.004914
 **** Fit       0.004047
 **** Fit       0.003177
 **** Fit       0.003701
 **** Fit       0.004392
 **** Fit       0.005088
 **** Fit       0.005725
 **** Fit       0.006253
 **** Fit       0.006661
 **** Fit       0.006982
 **** Fit       0.007271
 **** Fit       0.007564
 **** Fit       0.007843
 **** Fit       0.008028
 **** Fit       0.007996
 **** Fit       0.007650
 **** Fit       0.006972
 **** Fit       0.006040
 **** Fit       0.004984
 **** Fit       0.003931
 **** Fit       0.002962
 **** Fit       0.003174
 **** Fit       0.003839
 **** Fit       0.004564
 **** Fit       0.005302
 **** Fit       0.005989
 **** Fit       0.006573
 **** Fit       0.007047
 **** Fit       0.007452
 **** Fit       0.007852
 **** Fit       0.008287
 **** Fit       0.008732
 **** Fit       0.009075
 **** Fit       0.009155
 **** Fit       0.008833
 **** Fit       0.008082
 **** Fit       0.007006
 **** Fit       0.005781
 **** Fit       0.004567
 **** Fit       0.003464
 **** Fit       0.003825
 **** Fit       0.004540
 **** Fit       0.005272
 **** Fit       0.005965
 **** Fit       0.006573
 **** Fit       0.007094
 **** Fit       0.007571
 **** Fit       0.008068
 **** Fit       0.008625
 **** Fit       0.009207
 **** Fit       0.009684
 **** Fit       0.009863
 **** Fit       0.009576
 **** Fit       0.008791
 **** Fit       0.007630
 **** Fit       0.006300
 **** Fit       0.004987
 **** Fit       0.003802
 **** Fit       0.002787
 **** Fit       0.003674
 **** Fit       0.004336
 **** Fit       0.005018
 **** Fit       0.005675
 **** Fit       0.006271
 **** Fit       0.006809
 **** Fit       0.007327
 **** Fit       0.007883
 **** Fit       0.008507
 **** Fit       0.009157
 **** Fit       0.009699
 **** Fit       0.009933
 **** Fit       0.009685
 **** Fit       0.008921
 **** Fit       0.007768
 **** Fit       0.006437
 **** Fit       0.005119
 **** Fit       0.003928
 **** Fit       0.002906
 **** Fit       0.003420
 **** Fit       0.004001
 **** Fit       0.004602
 **** Fit       0.005190
 **** Fit       0.005741
 **** Fit       0.006260
 **** Fit       0.006778
 **** Fit       0.007336
 **** Fit       0.007953
 **** Fit       0.008585
 **** Fit       0.009107
 **** Fit       0.009339
 **** Fit       0.009129
 **** Fit       0.008443
 **** Fit       0.007394
 **** Fit       0.006171
 **** Fit       0.004947
 **** Fit       0.003830
 **** Fit       0.002862
 **** Fit       0.003594
 **** Fit       0.004098
 **** Fit       0.004599
 **** Fit       0.005082
 **** Fit       0.005549
 **** Fit       0.006023
 **** Fit       0.006530
 **** Fit       0.007076
 **** Fit       0.007619
 **** Fit       0.008055
 **** Fit       0.008242
 **** Fit       0.008063
 **** Fit       0.007491
 **** Fit       0.006613
 **** Fit       0.005576
 **** Fit       0.004521
 **** Fit       0.003539
 **** Fit       0.004381
 **** Fit       0.005595
 **** Fit       0.006032
 **** Fit       0.006450
 **** Fit       0.006772
 **** Fit       0.006897
 **** Fit       0.006744
 **** Fit       0.006295
 **** Fit       0.005607
 **** Fit       0.004784
 **** Fit       0.003927
 **** Fit       0.003110
 **** Fit       0.004647
 **** Fit       0.004967
 **** Fit       0.005259
 **** Fit       0.005471
 **** Fit       0.005537
 **** Fit       0.005407
 **** Fit       0.005067
 **** Fit       0.004552
 **** Fit       0.003928
 **** Fit       0.003264
 **** Fit       0.004171
 **** Fit       0.004293
 **** Fit       0.004314
 **** Fit       0.004201
 **** Fit       0.003946
 **** Fit       0.003570
 **** Fit       0.003109
 **** Fit       0.003291
 **** Fit       0.003192
 **** Fit       0.002999
 **** Fit       0.004647
 **** Fit       0.004476
 **** Fit       0.004189
 **** Fit       0.003788
 **** Fit       0.003917
 **** Fit       0.004337
 **** Fit       0.004696
 **** Fit       0.004985
 **** Fit       0.005588
 **** Fit       0.005574
 **** Fit       0.005434
 **** Fit       0.005139
 **** Fit       0.004686
 **** Fit       0.004108
 **** Fit       0.003455
 **** Fit       0.004228
 **** Fit       0.004702
 **** Fit       0.005116
 **** Fit       0.005461
 **** Fit       0.005749
 **** Fit       0.006207
 **** Fit       0.006367
 **** Fit       0.006429
 **** Fit       0.006335
 **** Fit       0.006041
 **** Fit       0.005542
 **** Fit       0.004879
 **** Fit       0.004121
 **** Fit       0.003340
 **** Fit       0.004395
 **** Fit       0.004903
 **** Fit       0.005357
 **** Fit       0.005750
 **** Fit       0.006096
 **** Fit       0.006413
 **** Fit       0.006709
 **** Fit       0.006957
 **** Fit       0.007099
 **** Fit       0.007059
 **** Fit       0.006777
 **** Fit       0.006245
 **** Fit       0.005513
 **** Fit       0.004668
 **** Fit       0.003798
 **** Fit       0.004401
 **** Fit       0.004917
 **** Fit       0.005389
 **** Fit       0.005814
 **** Fit       0.006204
 **** Fit       0.006579
 **** Fit       0.006943
 **** Fit       0.007265
 **** Fit       0.007474
 **** Fit       0.007483
 **** Fit       0.007222
 **** Fit       0.006679
 **** Fit       0.005912
 **** Fit       0.005018
 **** Fit       0.004097
 **** Fit       0.004253
 **** Fit       0.004751
 **** Fit       0.005218
 **** Fit       0.005652
 **** Fit       0.006064
 **** Fit       0.006471
 **** Fit       0.006872
 **** Fit       0.007233
 **** Fit       0.007480
 **** Fit       0.007522
 **** Fit       0.007287
 **** Fit       0.006762
 **** Fit       0.006005
 **** Fit       0.005115
 **** Fit       0.004195
 **** Fit       0.006110
 **** Fit       0.006510
 **** Fit       0.006868
 **** Fit       0.007116
 **** Fit       0.007169
 **** Fit       0.006961
 **** Fit       0.006481
 **** Fit       0.005780
 **** Fit       0.004950
 **** Fit       0.004084
 **** Fit       0.005918
 **** Fit       0.006237
 **** Fit       0.006454
 **** Fit       0.006499
 **** Fit       0.006318
 **** Fit       0.005901
 **** Fit       0.005290
 **** Fit       0.004561
 **** Fit       0.003792
 **** Fit       0.005189
 **** Fit       0.005446
 **** Fit       0.005615
 **** Fit       0.005640
 **** Fit       0.005483
 **** Fit       0.005136
 **** Fit       0.004630
 **** Fit       0.004021
 **** Fit       0.004605
 **** Fit       0.004719
 **** Fit       0.004723
 **** Fit       0.004586
 **** Fit       0.004306
 **** Fit       0.003901
 **** Fit       0.005098
 **** Fit       0.004852
 **** Fit       0.004471
 **** Fit       0.005663
 **** Fit       0.005579
 **** Fit       0.005339
 **** Fit       0.004942
 **** Fit       0.004415
 **** Fit       0.005828
 **** Fit       0.005911
 **** Fit       0.005854
 **** Fit       0.005627
 **** Fit       0.005228
 **** Fit       0.004685
 **** Fit       0.005812
 **** Fit       0.005918
 **** Fit       0.005882
 **** Fit       0.005673
 **** Fit       0.005286
 **** Fit       0.004753
 **** Fit       0.005573
 **** Fit       0.005685
 **** Fit       0.005661
 **** Fit       0.005471
 **** Fit       0.005113
 **** Fit       0.004613
 **** Fit       0.005251
 **** Fit       0.005230
 **** Fit       0.005061
 **** Fit       0.004741
 -----------------------------------------------------------------
 Leave Link  602 at Thu Apr 21 11:34:53 2022, MaxMem=   104857600 cpu:               5.4 elap:               5.5
 (Enter /opt/ohpc/pub/libs/gaussian/g16-A.03/haswell/g16/l9999.exe)

 Test job not archived.
 1\1\GINC-CASCADEB057\SP\RB3LYP\6-311++G(d,p)\C12H21N1O4\MNG228\21-Apr-
 2022\0\\#P B3LYP/6-311++G(d,p) Geom=Allcheck SCF=Tight EmpiricalDisper
 sion=GD3BJ Pop=CHELPG SP IOp(6/33=2)\\MAA1-DMA1 geo opt\\0,1\C,0,12.33
 6780508,11.5796930513,13.7528886068\C,0,12.4027224095,11.7961761947,12
 .2664848262\C,0,13.3726833454,11.3143055854,11.4858886825\C,0,11.31668
 24972,12.5917520097,11.6094488939\O,0,11.2613656289,12.8307317922,10.4
 186912197\O,0,10.3892212845,13.0015609414,12.4822688063\H,0,13.1868804
 643,10.9856304454,14.0922382949\H,0,11.4136492259,11.0659005018,14.033
 2634113\H,0,12.3373054809,12.5327473828,14.2878933443\H,0,14.185803665
 2,10.7270537598,11.8965896123\H,0,13.3651779706,11.5052958951,10.42005
 37712\H,0,9.6877405318,13.5081239945,12.010264374\C,0,5.7168230937,16.
 0196385396,9.3137629679\C,0,6.6787568264,15.8678858502,10.4594767728\C
 ,0,6.8219959069,16.7663478393,11.4370548444\C,0,7.5340517083,14.643885
 1852,10.5218375669\O,0,8.3502290521,14.4246232846,11.3999393806\O,0,7.
 2933811454,13.8207654919,9.4995183245\C,0,8.0556419109,12.5851944428,9
 .4035643653\C,0,7.416226228,11.511180796,10.2800633986\N,0,7.924723042
 3,10.181833384,9.9613989003\C,0,9.3132518804,9.9983616002,10.374043031
 2\C,0,7.0721064971,9.1461810795,10.5290953764\H,0,5.1655450203,16.9568
 31259,9.4018625619\H,0,5.0019915691,15.1933768429,9.2878815827\H,0,6.2
 425846979,16.010385582,8.3557765594\H,0,6.234085963,17.6765077808,11.4
 514451986\H,0,7.5324745969,16.603521642,12.2375022984\H,0,9.094569692,
 12.7904454018,9.6558274756\H,0,7.9793437241,12.2994203671,8.3559963754
 \H,0,6.3413554027,11.5192528845,10.0797553984\H,0,7.5552148154,11.7632
 101387,11.3460332519\H,0,9.6437920873,8.997253875,10.0900888574\H,0,9.
 4441109381,10.108307288,11.4662777809\H,0,9.9634774244,10.7192701484,9
 .880621046\H,0,6.051376599,9.2577839438,10.1564854028\H,0,7.0428228665
 ,9.1739241657,11.6342783785\H,0,7.4400542995,8.1636396331,10.225439059
 8\\Version=ES64L-G16RevA.03\State=1-A\HF=-825.8689088\RMSD=8.485e-09\D
 ipole=-0.7385825,-0.029844,0.1940269\Quadrupole=2.2160667,3.5155038,-5
 .7315705,-7.2742095,3.8219378,-2.1515675\PG=C01 [X(C12H21N1O4)]\\@


 THE LENGTH OF A MEETING IS PROPORTIONAL TO THE
 SQUARE OF THE PARTICIPANTS.
 Job cpu time:       0 days  0 hours 16 minutes 57.6 seconds.
 Elapsed time:       0 days  0 hours 17 minutes  0.6 seconds.
 File lengths (MBytes):  RWF=    368 Int=      0 D2E=      0 Chk=     48 Scr=     32
 Normal termination of Gaussian 16 at Thu Apr 21 11:34:54 2022.
