9
	Energy: -167627.1944697
C          5.93140        4.39703        5.05486
C          7.03122        5.28885        4.92300
H          7.30727        5.67882        3.95274
H          7.53140        5.68579        5.79608
H          5.65051        3.80117        4.18741
H          5.84328        3.84334        5.98759
O          5.04642        5.63582        5.11452
C          3.51687        5.33158        5.05799
O          3.11425        4.26160        4.86270
