 Entering Gaussian System, Link 0=g16
 Initial command:
 /mnt/gpfs3_amd/share/apps/amd/gaussian/g16-A.03/g16/l1.exe "g16_scratch/Gau-3459429.inp" -scrdir="g16_scratch/"
 Entering Link 1 = /mnt/gpfs3_amd/share/apps/amd/gaussian/g16-A.03/g16/l1.exe PID=   3459430.
  
 Copyright (c) 1988,1990,1992,1993,1995,1998,2003,2009,2016,
            Gaussian, Inc.  All Rights Reserved.
  
 This is part of the Gaussian(R) 16 program.  It is based on
 the Gaussian(R) 09 system (copyright 2009, Gaussian, Inc.),
 the Gaussian(R) 03 system (copyright 2003, Gaussian, Inc.),
 the Gaussian(R) 98 system (copyright 1998, Gaussian, Inc.),
 the Gaussian(R) 94 system (copyright 1995, Gaussian, Inc.),
 the Gaussian 92(TM) system (copyright 1992, Gaussian, Inc.),
 the Gaussian 90(TM) system (copyright 1990, Gaussian, Inc.),
 the Gaussian 88(TM) system (copyright 1988, Gaussian, Inc.),
 the Gaussian 86(TM) system (copyright 1986, Carnegie Mellon
 University), and the Gaussian 82(TM) system (copyright 1983,
 Carnegie Mellon University). Gaussian is a federally registered
 trademark of Gaussian, Inc.
  
 This software contains proprietary and confidential information,
 including trade secrets, belonging to Gaussian, Inc.
  
 This software is provided under written license and may be
 used, copied, transmitted, or stored only in accord with that
 written license.
  
 The following legend is applicable only to US Government
 contracts under FAR:
  
                    RESTRICTED RIGHTS LEGEND
  
 Use, reproduction and disclosure by the US Government is
 subject to restrictions as set forth in subparagraphs (a)
 and (c) of the Commercial Computer Software - Restricted
 Rights clause in FAR 52.227-19.
  
 Gaussian, Inc.
 340 Quinnipiac St., Bldg. 40, Wallingford CT 06492
  
  
 ---------------------------------------------------------------
 Warning -- This program may not be used in any manner that
 competes with the business of Gaussian, Inc. or will provide
 assistance to any competitor of Gaussian, Inc.  The licensee
 of this program is prohibited from giving any competitor of
 Gaussian, Inc. access to this program.  By using this program,
 the user acknowledges that Gaussian, Inc. is engaged in the
 business of creating and licensing software in the field of
 computational chemistry and represents and warrants to the
 licensee that it is not a competitor of Gaussian, Inc. and that
 it will not use this program in any manner prohibited above.
 ---------------------------------------------------------------
  

 Cite this work as:
 Gaussian 16, Revision A.03,
 M. J. Frisch, G. W. Trucks, H. B. Schlegel, G. E. Scuseria, 
 M. A. Robb, J. R. Cheeseman, G. Scalmani, V. Barone, 
 G. A. Petersson, H. Nakatsuji, X. Li, M. Caricato, A. V. Marenich, 
 J. Bloino, B. G. Janesko, R. Gomperts, B. Mennucci, H. P. Hratchian, 
 J. V. Ortiz, A. F. Izmaylov, J. L. Sonnenberg, D. Williams-Young, 
 F. Ding, F. Lipparini, F. Egidi, J. Goings, B. Peng, A. Petrone, 
 T. Henderson, D. Ranasinghe, V. G. Zakrzewski, J. Gao, N. Rega, 
 G. Zheng, W. Liang, M. Hada, M. Ehara, K. Toyota, R. Fukuda, 
 J. Hasegawa, M. Ishida, T. Nakajima, Y. Honda, O. Kitao, H. Nakai, 
 T. Vreven, K. Throssell, J. A. Montgomery, Jr., J. E. Peralta, 
 F. Ogliaro, M. J. Bearpark, J. J. Heyd, E. N. Brothers, K. N. Kudin, 
 V. N. Staroverov, T. A. Keith, R. Kobayashi, J. Normand, 
 K. Raghavachari, A. P. Rendell, J. C. Burant, S. S. Iyengar, 
 J. Tomasi, M. Cossi, J. M. Millam, M. Klene, C. Adamo, R. Cammi, 
 J. W. Ochterski, R. L. Martin, K. Morokuma, O. Farkas, 
 J. B. Foresman, and D. J. Fox, Gaussian, Inc., Wallingford CT, 2016.
 
 ******************************************
 Gaussian 16:  AM64L-G16RevA.03 25-Dec-2016
                 7-Dec-2021 
 ******************************************
 %Mem=512GB
 %NProcShared=128
 Will use up to  128 processors via shared memory.
 %Chk=MAA1-VI1-1.chk
 ---------------------------------------------------------------------
 #n B3LYP/6-311++G(d,p) Opt freq EmpiricalDispersion=GD3BJ IOp(6/33=2)
 ---------------------------------------------------------------------
 1/18=20,19=15,26=3,38=1/1,3;
 2/9=110,12=2,17=6,18=5,40=1/2;
 3/5=4,6=6,7=1111,11=2,25=1,30=1,71=1,74=-5,124=41/1,2,3;
 4//1;
 5/5=2,38=5/2;
 6/7=2,8=2,9=2,10=2,28=1,33=2/1;
 7//1,2,3,16;
 1/18=20,19=15,26=3/3(2);
 2/9=110/2;
 99//99;
 2/9=110/2;
 3/5=4,6=6,7=1111,11=2,25=1,30=1,71=1,74=-5,124=41/1,2,3;
 4/5=5,16=3,69=1/1;
 5/5=2,38=5/2;
 7//1,2,3,16;
 1/18=20,19=15,26=3/3(-5);
 2/9=110/2;
 6/7=2,8=2,9=2,10=2,19=2,28=1,33=2/1;
 99/9=1/99;
 ----------------
 MAA1-VI1 geo opt
 ----------------
 Symbolic Z-matrix:
 Charge =  0 Multiplicity = 1
 C                     17.547    12.495    23.534 
 C                     18.893    11.788    23.298 
 C                     20.044    12.539    23.382 
 C                     18.905    10.399    23.124 
 O                     18.437    9.645     23.968 
 O                     19.39     9.828     21.98 
 H                     17.065    12.609    22.563 
 H                     17.511    13.436    24.083 
 H                     16.777    11.961    24.09 
 H                     20.07     13.616    23.447 
 H                     20.973    11.991    23.315 
 H                     19.676    10.406    21.289 
 C                     23.149    15.162    21.364 
 C                     23.242    14.178    20.425 
 N                     22.14     13.425    20.088 
 C                     21.038    13.953    19.409 
 C                     20.05     12.963    19.496 
 N                     20.481    11.889    20.301 
 C                     21.718    12.257    20.611 
 H                     24.007    15.572    21.875 
 H                     22.187    15.561    21.648 
 H                     24.285    13.931    20.294 
 H                     20.866    14.875    18.874 
 H                     19.12     12.952    18.948 
 H                     22.251    11.74     21.396 
 
 Add virtual bond connecting atoms N18        and H12        Dist= 3.70D+00.

 GradGradGradGradGradGradGradGradGradGradGradGradGradGradGradGradGradGrad
 Berny optimization.
 Initialization pass.
                           ----------------------------
                           !    Initial Parameters    !
                           ! (Angstroms and Degrees)  !
 --------------------------                            --------------------------
 ! Name  Definition              Value          Derivative Info.                !
 --------------------------------------------------------------------------------
 ! R1    R(1,2)                  1.5386         estimate D2E/DX2                !
 ! R2    R(1,7)                  1.09           estimate D2E/DX2                !
 ! R3    R(1,8)                  1.09           estimate D2E/DX2                !
 ! R4    R(1,9)                  1.0896         estimate D2E/DX2                !
 ! R5    R(2,3)                  1.3769         estimate D2E/DX2                !
 ! R6    R(2,4)                  1.3999         estimate D2E/DX2                !
 ! R7    R(3,10)                 1.0793         estimate D2E/DX2                !
 ! R8    R(3,11)                 1.0807         estimate D2E/DX2                !
 ! R9    R(4,5)                  1.2247         estimate D2E/DX2                !
 ! R10   R(4,6)                  1.3675         estimate D2E/DX2                !
 ! R11   R(6,12)                 0.9452         estimate D2E/DX2                !
 ! R12   R(12,18)                1.9554         estimate D2E/DX2                !
 ! R13   R(13,14)                1.3633         estimate D2E/DX2                !
 ! R14   R(13,20)                1.0795         estimate D2E/DX2                !
 ! R15   R(13,21)                1.0795         estimate D2E/DX2                !
 ! R16   R(14,15)                1.3766         estimate D2E/DX2                !
 ! R17   R(14,22)                1.0798         estimate D2E/DX2                !
 ! R18   R(15,16)                1.3979         estimate D2E/DX2                !
 ! R19   R(15,19)                1.3475         estimate D2E/DX2                !
 ! R20   R(16,17)                1.4014         estimate D2E/DX2                !
 ! R21   R(16,23)                1.0798         estimate D2E/DX2                !
 ! R22   R(17,18)                1.4097         estimate D2E/DX2                !
 ! R23   R(17,24)                1.0795         estimate D2E/DX2                !
 ! R24   R(18,19)                1.3273         estimate D2E/DX2                !
 ! R25   R(19,25)                1.0806         estimate D2E/DX2                !
 ! A1    A(2,1,7)              107.3531         estimate D2E/DX2                !
 ! A2    A(2,1,8)              120.1875         estimate D2E/DX2                !
 ! A3    A(2,1,9)              118.1187         estimate D2E/DX2                !
 ! A4    A(7,1,8)              110.1065         estimate D2E/DX2                !
 ! A5    A(7,1,9)              101.1471         estimate D2E/DX2                !
 ! A6    A(8,1,9)               98.2064         estimate D2E/DX2                !
 ! A7    A(1,2,3)              118.1194         estimate D2E/DX2                !
 ! A8    A(1,2,4)              118.8485         estimate D2E/DX2                !
 ! A9    A(3,2,4)              122.7923         estimate D2E/DX2                !
 ! A10   A(2,3,10)             124.6172         estimate D2E/DX2                !
 ! A11   A(2,3,11)             115.9923         estimate D2E/DX2                !
 ! A12   A(10,3,11)            119.2783         estimate D2E/DX2                !
 ! A13   A(2,4,5)              121.4621         estimate D2E/DX2                !
 ! A14   A(2,4,6)              121.4211         estimate D2E/DX2                !
 ! A15   A(5,4,6)              117.0639         estimate D2E/DX2                !
 ! A16   A(4,6,12)             117.618          estimate D2E/DX2                !
 ! A17   A(6,12,18)            163.2886         estimate D2E/DX2                !
 ! A18   A(14,13,20)           123.0886         estimate D2E/DX2                !
 ! A19   A(14,13,21)           120.5823         estimate D2E/DX2                !
 ! A20   A(20,13,21)           116.3193         estimate D2E/DX2                !
 ! A21   A(13,14,15)           120.5852         estimate D2E/DX2                !
 ! A22   A(13,14,22)           108.3334         estimate D2E/DX2                !
 ! A23   A(15,14,22)           128.2002         estimate D2E/DX2                !
 ! A24   A(14,15,16)           122.9131         estimate D2E/DX2                !
 ! A25   A(14,15,19)           129.0364         estimate D2E/DX2                !
 ! A26   A(16,15,19)           105.6062         estimate D2E/DX2                !
 ! A27   A(15,16,17)           104.9986         estimate D2E/DX2                !
 ! A28   A(15,16,23)           133.531          estimate D2E/DX2                !
 ! A29   A(17,16,23)           121.4456         estimate D2E/DX2                !
 ! A30   A(16,17,18)           110.9848         estimate D2E/DX2                !
 ! A31   A(16,17,24)           125.6668         estimate D2E/DX2                !
 ! A32   A(18,17,24)           123.06           estimate D2E/DX2                !
 ! A33   A(12,18,17)           137.7725         estimate D2E/DX2                !
 ! A34   A(12,18,19)           118.4212         estimate D2E/DX2                !
 ! A35   A(17,18,19)           101.9513         estimate D2E/DX2                !
 ! A36   A(15,19,18)           116.2017         estimate D2E/DX2                !
 ! A37   A(15,19,25)           122.8334         estimate D2E/DX2                !
 ! A38   A(18,19,25)           119.7839         estimate D2E/DX2                !
 ! D1    D(7,1,2,3)            105.5991         estimate D2E/DX2                !
 ! D2    D(7,1,2,4)            -79.8681         estimate D2E/DX2                !
 ! D3    D(8,1,2,3)            -21.1594         estimate D2E/DX2                !
 ! D4    D(8,1,2,4)            153.3734         estimate D2E/DX2                !
 ! D5    D(9,1,2,3)           -141.0329         estimate D2E/DX2                !
 ! D6    D(9,1,2,4)             33.4999         estimate D2E/DX2                !
 ! D7    D(1,2,3,10)           -10.1571         estimate D2E/DX2                !
 ! D8    D(1,2,3,11)           173.7353         estimate D2E/DX2                !
 ! D9    D(4,2,3,10)           175.5402         estimate D2E/DX2                !
 ! D10   D(4,2,3,11)            -0.5674         estimate D2E/DX2                !
 ! D11   D(1,2,4,5)            -56.8151         estimate D2E/DX2                !
 ! D12   D(1,2,4,6)            120.4613         estimate D2E/DX2                !
 ! D13   D(3,2,4,5)            117.448          estimate D2E/DX2                !
 ! D14   D(3,2,4,6)            -65.2756         estimate D2E/DX2                !
 ! D15   D(2,4,6,12)            -3.1663         estimate D2E/DX2                !
 ! D16   D(5,4,6,12)           174.2249         estimate D2E/DX2                !
 ! D17   D(4,6,12,18)           41.1103         estimate D2E/DX2                !
 ! D18   D(6,12,18,17)        -114.9939         estimate D2E/DX2                !
 ! D19   D(6,12,18,19)          46.1984         estimate D2E/DX2                !
 ! D20   D(20,13,14,15)        161.0335         estimate D2E/DX2                !
 ! D21   D(20,13,14,22)         -1.2585         estimate D2E/DX2                !
 ! D22   D(21,13,14,15)        -17.7896         estimate D2E/DX2                !
 ! D23   D(21,13,14,22)        179.9185         estimate D2E/DX2                !
 ! D24   D(13,14,15,16)         68.2057         estimate D2E/DX2                !
 ! D25   D(13,14,15,19)        -91.4109         estimate D2E/DX2                !
 ! D26   D(22,14,15,16)       -133.35           estimate D2E/DX2                !
 ! D27   D(22,14,15,19)         67.0333         estimate D2E/DX2                !
 ! D28   D(14,15,16,17)       -168.6423         estimate D2E/DX2                !
 ! D29   D(14,15,16,23)         13.2194         estimate D2E/DX2                !
 ! D30   D(19,15,16,17)         -4.956          estimate D2E/DX2                !
 ! D31   D(19,15,16,23)        176.9057         estimate D2E/DX2                !
 ! D32   D(14,15,19,18)        166.2062         estimate D2E/DX2                !
 ! D33   D(14,15,19,25)         -1.3247         estimate D2E/DX2                !
 ! D34   D(16,15,19,18)          3.8795         estimate D2E/DX2                !
 ! D35   D(16,15,19,25)       -163.6514         estimate D2E/DX2                !
 ! D36   D(15,16,17,18)          4.7164         estimate D2E/DX2                !
 ! D37   D(15,16,17,24)       -169.2436         estimate D2E/DX2                !
 ! D38   D(23,16,17,18)       -176.8656         estimate D2E/DX2                !
 ! D39   D(23,16,17,24)          9.1744         estimate D2E/DX2                !
 ! D40   D(16,17,18,12)        160.6992         estimate D2E/DX2                !
 ! D41   D(16,17,18,19)         -2.4538         estimate D2E/DX2                !
 ! D42   D(24,17,18,12)        -25.1551         estimate D2E/DX2                !
 ! D43   D(24,17,18,19)        171.692          estimate D2E/DX2                !
 ! D44   D(12,18,19,15)       -168.1434         estimate D2E/DX2                !
 ! D45   D(12,18,19,25)         -0.2091         estimate D2E/DX2                !
 ! D46   D(17,18,19,15)         -0.939          estimate D2E/DX2                !
 ! D47   D(17,18,19,25)        166.9953         estimate D2E/DX2                !
 --------------------------------------------------------------------------------
 Trust Radius=3.00D-01 FncErr=1.00D-07 GrdErr=1.00D-06 EigMax=2.50D+02 EigMin=1.00D-04
 Number of steps in this run=    120 maximum allowed number of steps=    150.
 GradGradGradGradGradGradGradGradGradGradGradGradGradGradGradGradGradGrad

                          Input orientation:                          
 ---------------------------------------------------------------------
 Center     Atomic      Atomic             Coordinates (Angstroms)
 Number     Number       Type             X           Y           Z
 ---------------------------------------------------------------------
      1          6           0       17.547000   12.495000   23.534000
      2          6           0       18.893000   11.788000   23.298000
      3          6           0       20.044000   12.539000   23.382000
      4          6           0       18.905000   10.399000   23.124000
      5          8           0       18.437000    9.645000   23.968000
      6          8           0       19.390000    9.828000   21.980000
      7          1           0       17.065000   12.609000   22.563000
      8          1           0       17.511000   13.436000   24.083000
      9          1           0       16.777000   11.961000   24.090000
     10          1           0       20.070000   13.616000   23.447000
     11          1           0       20.973000   11.991000   23.315000
     12          1           0       19.676000   10.406000   21.289000
     13          6           0       23.149000   15.162000   21.364000
     14          6           0       23.242000   14.178000   20.425000
     15          7           0       22.140000   13.425000   20.088000
     16          6           0       21.038000   13.953000   19.409000
     17          6           0       20.050000   12.963000   19.496000
     18          7           0       20.481000   11.889000   20.301000
     19          6           0       21.718000   12.257000   20.611000
     20          1           0       24.007000   15.572000   21.875000
     21          1           0       22.187000   15.561000   21.648000
     22          1           0       24.285000   13.931000   20.294000
     23          1           0       20.866000   14.875000   18.874000
     24          1           0       19.120000   12.952000   18.948000
     25          1           0       22.251000   11.740000   21.396000
 ---------------------------------------------------------------------
                    Distance matrix (angstroms):
                    1          2          3          4          5
     1  C    0.000000
     2  C    1.538591   0.000000
     3  C    2.502009   1.376902   0.000000
     4  C    2.530905   1.399907   2.437926   0.000000
     5  O    3.017111   2.291132   3.361708   1.224694   0.000000
     6  O    3.595060   2.413656   3.121352   1.367480   2.212203
     7  H    1.090028   2.134444   3.090324   2.929918   3.555518
     8  H    1.090036   2.289553   2.777067   3.476534   3.904149
     9  H    1.089583   2.265976   3.392438   2.810940   2.852076
    10  H    2.762198   2.179246   1.079273   3.436662   4.325156
    11  H    3.469791   2.089952   1.080664   2.616786   3.515881
    12  H    3.733174   2.561073   3.010940   1.990406   3.048161
    13  C    6.572990   5.765221   4.538004   6.617802   7.708505
    14  C    6.703088   5.734111   4.653748   6.354133   7.495930
    15  N    5.816826   4.850451   4.003579   5.370214   6.561632
    16  C    5.597184   4.940908   4.332685   5.566132   6.790327
    17  C    4.773833   4.144210   3.909067   4.587756   5.797385
    18  N    4.407707   3.393222   3.178998   3.559945   4.760290
    19  C    5.098805   3.926901   3.249652   4.204795   5.371867
    20  H    7.345190   6.518940   5.213013   7.372268   8.398505
    21  H    5.872559   5.273373   4.090439   6.292563   7.378615
    22  H    7.613169   6.533768   5.427660   7.030528   8.128172
    23  H    6.196431   5.744047   5.143408   6.476310   7.694269
    24  H    4.869761   4.508761   4.548044   4.899287   6.050053
    25  H    5.221943   3.859543   3.074646   3.997497   5.054780
                    6          7          8          9         10
     6  O    0.000000
     7  H    3.671440   0.000000
     8  H    4.579401   1.786965   0.000000
     9  H    3.978638   1.683620   1.647553   0.000000
    10  H    4.118669   3.290217   2.642986   3.741166   0.000000
    11  H    2.994442   4.027393   3.829268   4.267076   1.863722
    12  H    0.945178   3.646040   4.655595   4.320628   3.887969
    13  C    6.554471   6.706002   6.493002   7.634125   4.026071
    14  C    6.014851   6.722212   6.839290   7.755227   4.417003
    15  N    4.907196   5.705007   6.114555   6.849896   3.950223
    16  C    5.132404   5.247741   5.878205   6.635959   4.166058
    17  C    4.053897   4.294418   5.264107   5.728994   4.004649
    18  N    2.873507   4.159820   5.051498   5.299181   3.612308
    19  C    3.632325   5.058124   5.580652   6.050168   3.550448
    20  H    7.370295   7.579187   7.185804   8.379645   4.668735
    21  H    6.387544   5.982175   5.684173   6.942007   3.391329
    22  H    6.605924   7.682737   7.777443   8.640635   5.273221
    23  H    6.107211   5.761170   6.360851   7.240026   4.809473
    24  H    4.361800   4.172397   5.402903   5.736889   4.645901
    25  H    3.490290   5.386246   5.706486   6.105010   3.533092
                   11         12         13         14         15
    11  H    0.000000
    12  H    2.880818   0.000000
    13  C    4.312380   5.889558   0.000000
    14  C    4.275913   5.262208   1.363314   0.000000
    15  N    3.719109   4.077752   2.379795   1.376583   0.000000
    16  C    4.371556   4.239181   3.120902   2.437313   1.397937
    17  C    4.047403   3.145310   4.234244   3.539510   2.220812
    18  N    3.055596   1.955366   4.354391   3.588596   2.270891
    19  C    2.817339   2.838248   3.324725   2.459149   1.347530
    20  H    4.909411   6.766721   1.079530   2.151967   3.359861
    21  H    4.122813   5.745261   1.079491   2.126369   2.645431
    22  H    4.884607   5.887150   1.987651   1.079824   2.213481
    23  H    5.296356   5.217306   3.390363   2.921778   2.280213
    24  H    4.840229   3.503075   5.191724   4.547031   3.262473
    25  H    2.319234   2.902004   3.538010   2.805132   2.135980
                   16         17         18         19         20
    16  C    0.000000
    17  C    1.401361   0.000000
    18  N    2.316465   1.409703   0.000000
    19  C    2.187149   2.126943   1.327288   0.000000
    20  H    4.185365   5.303242   5.336164   4.222137   0.000000
    21  H    2.986467   3.993429   4.267134   3.494531   1.834135
    22  H    3.365519   4.416905   4.317433   3.080950   2.295588
    23  H    1.079765   2.169904   3.331779   3.255303   4.399738
    24  H    2.212068   1.079502   2.193832   3.161993   6.270127
    25  H    3.211994   3.154383   2.086654   1.080557   4.242311
                   21         22         23         24         25
    21  H    0.000000
    22  H    2.981915   0.000000
    23  H    3.148128   3.820615   0.000000
    24  H    4.848027   5.426544   2.598446   0.000000
    25  H    3.829836   3.186227   4.255224   4.155094   0.000000
 Stoichiometry    C9H12N2O2
 Framework group  C1[X(C9H12N2O2)]
 Deg. of freedom    69
 Full point group                 C1      NOp   1
 Largest Abelian subgroup         C1      NOp   1
 Largest concise Abelian subgroup C1      NOp   1
                         Standard orientation:                         
 ---------------------------------------------------------------------
 Center     Atomic      Atomic             Coordinates (Angstroms)
 Number     Number       Type             X           Y           Z
 ---------------------------------------------------------------------
      1          6           0        2.714020    1.350973    1.467484
      2          6           0        2.106050    0.794793    0.168139
      3          6           0        0.983002    1.409885   -0.338106
      4          6           0        2.777778   -0.231405   -0.506724
      5          8           0        3.937550   -0.100275   -0.877684
      6          8           0        2.185794   -1.443377   -0.731843
      7          1           0        2.462491    0.655195    2.267975
      8          1           0        2.500276    2.373496    1.778833
      9          1           0        3.799713    1.386253    1.552455
     10          1           0        0.402951    2.154302    0.185548
     11          1           0        0.646281    1.060528   -1.303716
     12          1           0        1.321395   -1.581747   -0.375431
     13          6           0       -3.539272    1.740906   -0.519593
     14          6           0       -3.540738    0.396479   -0.745735
     15          7           0       -2.579487   -0.410063   -0.179635
     16          6           0       -2.505041   -0.652933    1.195029
     17          6           0       -1.267324   -1.281835    1.385693
     18          7           0       -0.536552   -1.333689    0.181307
     19          6           0       -1.386473   -0.787660   -0.679611
     20          1           0       -4.061327    2.445088   -1.149649
     21          1           0       -2.986154    2.157980    0.308302
     22          1           0       -4.151689    0.198744   -1.613870
     23          1           0       -3.180694   -0.477714    2.018852
     24          1           0       -0.938558   -1.761627    2.295109
     25          1           0       -1.041177   -0.490229   -1.659360
 ---------------------------------------------------------------------
 Rotational constants (GHZ):           1.4348253           0.3866613           0.3646057
 Standard basis: 6-311++G(d,p) (5D, 7F)
 There are   383 symmetry adapted cartesian basis functions of A   symmetry.
 There are   370 symmetry adapted basis functions of A   symmetry.
   370 basis functions,   576 primitive gaussians,   383 cartesian basis functions
    48 alpha electrons       48 beta electrons
       nuclear repulsion energy       754.4761232442 Hartrees.
 NAtoms=   25 NActive=   25 NUniq=   25 SFac= 1.00D+00 NAtFMM=   60 NAOKFM=F Big=F
 Integral buffers will be    131072 words long.
 Raffenetti 2 integral format.
 Two-electron integral symmetry is turned on.
 Nuclear repulsion after empirical dispersion term =      754.4341654731 Hartrees.
 One-electron integrals computed using PRISM.
 NBasis=   370 RedAO= T EigKep=  9.38D-06  NBF=   370
 NBsUse=   370 1.00D-06 EigRej= -1.00D+00 NBFU=   370
 ExpMin= 3.60D-02 ExpMax= 8.59D+03 ExpMxC= 1.30D+03 IAcc=3 IRadAn=         5 AccDes= 0.00D+00
 Harris functional with IExCor=  402 and IRadAn=       5 diagonalized for initial guess.
 HarFok:  IExCor=  402 AccDes= 0.00D+00 IRadAn=         5 IDoV= 1 UseB2=F ITyADJ=14
 ICtDFT=  3500011 ScaDFX=  1.000000  1.000000  1.000000  1.000000
 FoFCou: FMM=F IPFlag=           0 FMFlag=      100000 FMFlg1=           0
         NFxFlg=           0 DoJE=T BraDBF=F KetDBF=T FulRan=T
         wScrn=  0.000000 ICntrl=       500 IOpCl=  0 I1Cent=   200000004 NGrid=           0
         NMat0=    1 NMatS0=      1 NMatT0=    0 NMatD0=    1 NMtDS0=    0 NMtDT0=    0
 Petite list used in FoFCou.
 Requested convergence on RMS density matrix=1.00D-08 within 128 cycles.
 Requested convergence on MAX density matrix=1.00D-06.
 Requested convergence on             energy=1.00D-06.
 No special actions if energy rises.
 SCF Done:  E(RB3LYP) =  -610.258238820     A.U. after   15 cycles
            NFock= 15  Conv=0.35D-08     -V/T= 2.0042
 SCF density gives NOpUse=  1 NOpAll=  1.

 **********************************************************************

            Population analysis using the SCF density.

 **********************************************************************

 Orbital symmetries:
 BldTbl:  Degeneracy threshold= 1.00D-02
       Occupied  (A) (A) (A) (A) (A) (A) (A) (A) (A) (A) (A) (A)
                 (A) (A) (A) (A) (A) (A) (A) (A) (A) (A) (A) (A)
                 (A) (A) (A) (A) (A) (A) (A) (A) (A) (A) (A) (A)
                 (A) (A) (A) (A) (A) (A) (A) (A) (A) (A) (A) (A)
       Virtual   (A) (A) (A) (A) (A) (A) (A) (A) (A) (A) (A) (A)
                 (A) (A) (A) (A) (A) (A) (A) (A) (A) (A) (A) (A)
                 (A) (A) (A) (A) (A) (A) (A) (A) (A) (A) (A) (A)
                 (A) (A) (A) (A) (A) (A) (A) (A) (A) (A) (A) (A)
                 (A) (A) (A) (A) (A) (A) (A) (A) (A) (A) (A) (A)
                 (A) (A) (A) (A) (A) (A) (A) (A) (A) (A) (A) (A)
                 (A) (A) (A) (A) (A) (A) (A) (A) (A) (A) (A) (A)
                 (A) (A) (A) (A) (A) (A) (A) (A) (A) (A) (A) (A)
                 (A) (A) (A) (A) (A) (A) (A) (A) (A) (A) (A) (A)
                 (A) (A) (A) (A) (A) (A) (A) (A) (A) (A) (A) (A)
                 (A) (A) (A) (A) (A) (A) (A) (A) (A) (A) (A) (A)
                 (A) (A) (A) (A) (A) (A) (A) (A) (A) (A) (A) (A)
                 (A) (A) (A) (A) (A) (A) (A) (A) (A) (A) (A) (A)
                 (A) (A) (A) (A) (A) (A) (A) (A) (A) (A) (A) (A)
                 (A) (A) (A) (A) (A) (A) (A) (A) (A) (A) (A) (A)
                 (A) (A) (A) (A) (A) (A) (A) (A) (A) (A) (A) (A)
                 (A) (A) (A) (A) (A) (A) (A) (A) (A) (A) (A) (A)
                 (A) (A) (A) (A) (A) (A) (A) (A) (A) (A) (A) (A)
                 (A) (A) (A) (A) (A) (A) (A) (A) (A) (A) (A) (A)
                 (A) (A) (A) (A) (A) (A) (A) (A) (A) (A) (A) (A)
                 (A) (A) (A) (A) (A) (A) (A) (A) (A) (A) (A) (A)
                 (A) (A) (A) (A) (A) (A) (A) (A) (A) (A) (A) (A)
                 (A) (A) (A) (A) (A) (A) (A) (A) (A) (A) (A) (A)
                 (A) (A) (A) (A) (A) (A) (A) (A) (A) (A) (A) (A)
                 (A) (A) (A) (A) (A) (A) (A) (A) (A) (A) (A) (A)
                 (A) (A) (A) (A) (A) (A) (A) (A) (A) (A) (A) (A)
                 (A) (A) (A) (A) (A) (A) (A) (A) (A) (A)
 The electronic state is 1-A.
 Alpha  occ. eigenvalues --  -19.14028 -19.09403 -14.41660 -14.33350 -10.29254
 Alpha  occ. eigenvalues --  -10.25642 -10.25440 -10.22998 -10.21603 -10.21557
 Alpha  occ. eigenvalues --  -10.20279 -10.18480 -10.17407  -1.08162  -1.05973
 Alpha  occ. eigenvalues --   -0.99922  -0.92974  -0.81414  -0.80395  -0.77033
 Alpha  occ. eigenvalues --   -0.70035  -0.67711  -0.65375  -0.62940  -0.60314
 Alpha  occ. eigenvalues --   -0.59686  -0.57386  -0.51249  -0.50195  -0.47959
 Alpha  occ. eigenvalues --   -0.47212  -0.46380  -0.45125  -0.44334  -0.42994
 Alpha  occ. eigenvalues --   -0.42174  -0.41332  -0.40948  -0.40075  -0.36903
 Alpha  occ. eigenvalues --   -0.36160  -0.33674  -0.32098  -0.30436  -0.29587
 Alpha  occ. eigenvalues --   -0.27911  -0.25935  -0.25042
 Alpha virt. eigenvalues --   -0.06566  -0.04549  -0.02573  -0.01880  -0.00560
 Alpha virt. eigenvalues --    0.00121   0.00420   0.00816   0.01008   0.01912
 Alpha virt. eigenvalues --    0.02578   0.03007   0.03571   0.04328   0.05002
 Alpha virt. eigenvalues --    0.05093   0.05916   0.06424   0.06773   0.07142
 Alpha virt. eigenvalues --    0.07555   0.08108   0.08765   0.09287   0.09614
 Alpha virt. eigenvalues --    0.10009   0.10476   0.10852   0.11070   0.11262
 Alpha virt. eigenvalues --    0.12073   0.12337   0.12533   0.12632   0.13045
 Alpha virt. eigenvalues --    0.13444   0.13810   0.14168   0.14222   0.14867
 Alpha virt. eigenvalues --    0.15301   0.15995   0.16301   0.16705   0.17047
 Alpha virt. eigenvalues --    0.17747   0.17898   0.18494   0.18716   0.19397
 Alpha virt. eigenvalues --    0.20245   0.20551   0.20702   0.21115   0.21902
 Alpha virt. eigenvalues --    0.21952   0.22668   0.22991   0.23512   0.23826
 Alpha virt. eigenvalues --    0.24090   0.25180   0.25425   0.26584   0.26872
 Alpha virt. eigenvalues --    0.27663   0.27866   0.28376   0.28830   0.29319
 Alpha virt. eigenvalues --    0.29947   0.30565   0.31082   0.31696   0.32525
 Alpha virt. eigenvalues --    0.32826   0.33301   0.33532   0.34147   0.34773
 Alpha virt. eigenvalues --    0.35472   0.36160   0.37473   0.37902   0.39640
 Alpha virt. eigenvalues --    0.39867   0.40585   0.41945   0.42927   0.43471
 Alpha virt. eigenvalues --    0.44482   0.44944   0.47177   0.48857   0.49794
 Alpha virt. eigenvalues --    0.50688   0.51739   0.53136   0.53960   0.54750
 Alpha virt. eigenvalues --    0.55892   0.56755   0.58810   0.59409   0.59963
 Alpha virt. eigenvalues --    0.60563   0.61179   0.62231   0.63000   0.65645
 Alpha virt. eigenvalues --    0.66096   0.66525   0.66836   0.67911   0.68071
 Alpha virt. eigenvalues --    0.69679   0.70180   0.70422   0.70940   0.72247
 Alpha virt. eigenvalues --    0.72842   0.73730   0.74181   0.75143   0.75995
 Alpha virt. eigenvalues --    0.76528   0.78098   0.78999   0.79404   0.80656
 Alpha virt. eigenvalues --    0.82809   0.83695   0.84901   0.86039   0.88128
 Alpha virt. eigenvalues --    0.88986   0.90473   0.91626   0.91914   0.94419
 Alpha virt. eigenvalues --    0.96180   0.96895   0.98561   1.00532   1.01162
 Alpha virt. eigenvalues --    1.04123   1.05345   1.07625   1.09609   1.10613
 Alpha virt. eigenvalues --    1.11556   1.12903   1.14152   1.15029   1.17488
 Alpha virt. eigenvalues --    1.18731   1.19404   1.20796   1.24104   1.24571
 Alpha virt. eigenvalues --    1.25664   1.27862   1.29802   1.30951   1.32338
 Alpha virt. eigenvalues --    1.34834   1.37950   1.40743   1.43061   1.44429
 Alpha virt. eigenvalues --    1.45490   1.45882   1.47225   1.50781   1.51364
 Alpha virt. eigenvalues --    1.53401   1.54607   1.55036   1.56099   1.57747
 Alpha virt. eigenvalues --    1.59934   1.60688   1.61611   1.62701   1.63928
 Alpha virt. eigenvalues --    1.64129   1.66655   1.68230   1.68482   1.69598
 Alpha virt. eigenvalues --    1.70279   1.72400   1.73140   1.74366   1.75090
 Alpha virt. eigenvalues --    1.76441   1.78592   1.79501   1.80889   1.83551
 Alpha virt. eigenvalues --    1.84055   1.84662   1.85992   1.87176   1.90265
 Alpha virt. eigenvalues --    1.93742   1.96315   1.97512   2.00711   2.01318
 Alpha virt. eigenvalues --    2.03081   2.05683   2.06494   2.06870   2.09985
 Alpha virt. eigenvalues --    2.10618   2.12491   2.16214   2.19934   2.21910
 Alpha virt. eigenvalues --    2.22280   2.24194   2.25729   2.30255   2.32103
 Alpha virt. eigenvalues --    2.34984   2.37023   2.37816   2.40703   2.41573
 Alpha virt. eigenvalues --    2.44380   2.47800   2.50732   2.52371   2.54206
 Alpha virt. eigenvalues --    2.54215   2.56729   2.57299   2.58373   2.58866
 Alpha virt. eigenvalues --    2.61743   2.63236   2.65010   2.66486   2.67689
 Alpha virt. eigenvalues --    2.68058   2.68625   2.71432   2.72992   2.74408
 Alpha virt. eigenvalues --    2.76131   2.77622   2.79166   2.80852   2.81948
 Alpha virt. eigenvalues --    2.83076   2.84918   2.87499   2.88943   2.90173
 Alpha virt. eigenvalues --    2.90868   2.92814   2.96205   2.97953   2.98460
 Alpha virt. eigenvalues --    3.01885   3.03490   3.04463   3.10289   3.10762
 Alpha virt. eigenvalues --    3.15539   3.18790   3.23178   3.25074   3.26584
 Alpha virt. eigenvalues --    3.33785   3.37983   3.39918   3.42595   3.50077
 Alpha virt. eigenvalues --    3.51980   3.57699   3.59355   3.65188   3.68622
 Alpha virt. eigenvalues --    3.71541   3.76991   3.78644   3.82650   3.83089
 Alpha virt. eigenvalues --    3.84860   3.93767   3.96892   3.98093   4.07725
 Alpha virt. eigenvalues --    4.09518   4.09927   4.23672   4.32255   4.53114
 Alpha virt. eigenvalues --    4.72869   4.98943   5.02341   5.08871   5.19053
 Alpha virt. eigenvalues --    5.19739   5.35326   5.65669   5.95482  23.71235
 Alpha virt. eigenvalues --   23.76134  23.79560  23.91474  23.94224  23.99349
 Alpha virt. eigenvalues --   24.02644  24.12325  24.13357  35.48989  35.63083
 Alpha virt. eigenvalues --   49.92051  50.01635
          Condensed to atoms (all electrons):
               1          2          3          4          5          6
     1  C    6.434705  -0.642434   0.091101  -0.434699   0.004461   0.012761
     2  C   -0.642434   7.024192  -0.415753  -0.452180  -0.144571  -0.222788
     3  C    0.091101  -0.415753   6.806364  -0.779699   0.066489   0.167331
     4  C   -0.434699  -0.452180  -0.779699   7.786146   0.344501   0.023298
     5  O    0.004461  -0.144571   0.066489   0.344501   8.080299  -0.117754
     6  O    0.012761  -0.222788   0.167331   0.023298  -0.117754   8.150008
     7  H    0.342312  -0.005431  -0.050875   0.044007   0.003559   0.000947
     8  H    0.411588  -0.093272   0.074619  -0.042533  -0.000820  -0.001245
     9  H    0.399893  -0.040074  -0.000082   0.010224   0.002438   0.006684
    10  H   -0.007124  -0.025051   0.293562   0.103942  -0.004882  -0.006836
    11  H    0.011772   0.016514   0.411305  -0.134952   0.004648   0.006002
    12  H   -0.009516   0.151281  -0.052518  -0.090476   0.002060   0.221819
    13  C   -0.000080  -0.025541   0.032177  -0.002188  -0.000006   0.000542
    14  C   -0.000413   0.007143  -0.008171   0.002858   0.000110  -0.000531
    15  N   -0.010213   0.018326   0.024804  -0.000316   0.000090   0.000845
    16  C   -0.019632   0.075394   0.026237  -0.047592   0.001204  -0.000992
    17  C    0.012097  -0.133134   0.102756   0.051148  -0.000534   0.013493
    18  N    0.011670  -0.124774   0.085290  -0.038911   0.003035   0.075735
    19  C    0.043807   0.059525  -0.254758   0.053081  -0.001145  -0.052761
    20  H    0.000142  -0.001372   0.001555   0.000225   0.000001   0.000056
    21  H    0.000844   0.005687  -0.005195  -0.000823  -0.000022  -0.000341
    22  H   -0.000097   0.001111  -0.000041  -0.000270   0.000011  -0.000151
    23  H   -0.000974  -0.001653   0.006489  -0.001532   0.000033   0.000418
    24  H   -0.002256  -0.002015  -0.007367   0.010972  -0.000502  -0.000020
    25  H    0.013242  -0.010054  -0.026845   0.009737   0.001426   0.002357
               7          8          9         10         11         12
     1  C    0.342312   0.411588   0.399893  -0.007124   0.011772  -0.009516
     2  C   -0.005431  -0.093272  -0.040074  -0.025051   0.016514   0.151281
     3  C   -0.050875   0.074619  -0.000082   0.293562   0.411305  -0.052518
     4  C    0.044007  -0.042533   0.010224   0.103942  -0.134952  -0.090476
     5  O    0.003559  -0.000820   0.002438  -0.004882   0.004648   0.002060
     6  O    0.000947  -0.001245   0.006684  -0.006836   0.006002   0.221819
     7  H    0.578893  -0.029608  -0.046150   0.008885  -0.002985  -0.002200
     8  H   -0.029608   0.537010  -0.023973   0.002483   0.001372  -0.000445
     9  H   -0.046150  -0.023973   0.505826  -0.002733   0.000099   0.001074
    10  H    0.008885   0.002483  -0.002733   0.543119  -0.053788  -0.006601
    11  H   -0.002985   0.001372   0.000099  -0.053788   0.618956   0.013998
    12  H   -0.002200  -0.000445   0.001074  -0.006601   0.013998   0.362026
    13  C   -0.000247   0.000256   0.000062  -0.001605   0.000158  -0.001144
    14  C    0.000256   0.000023  -0.000214   0.001251   0.003279  -0.002815
    15  N    0.000222   0.000402  -0.000127   0.002781  -0.010184  -0.006966
    16  C    0.005232  -0.000991  -0.000309   0.003735   0.005274   0.022182
    17  C   -0.006527   0.003943   0.000159   0.014048  -0.030547  -0.059177
    18  N    0.004776  -0.000314   0.000128  -0.000588   0.001191  -0.015357
    19  C   -0.001788  -0.003112  -0.001078  -0.013071   0.038136   0.030629
    20  H   -0.000019   0.000015   0.000003   0.001112  -0.001518  -0.000177
    21  H   -0.000304  -0.000021   0.000006  -0.003517   0.002612   0.000229
    22  H    0.000002  -0.000001  -0.000010  -0.000167   0.000709   0.000030
    23  H    0.000308   0.000035  -0.000001   0.000921  -0.000334   0.000787
    24  H   -0.000130   0.000236  -0.000267   0.000501  -0.001030  -0.004105
    25  H   -0.000545  -0.000100  -0.000100   0.000597  -0.001970  -0.002292
              13         14         15         16         17         18
     1  C   -0.000080  -0.000413  -0.010213  -0.019632   0.012097   0.011670
     2  C   -0.025541   0.007143   0.018326   0.075394  -0.133134  -0.124774
     3  C    0.032177  -0.008171   0.024804   0.026237   0.102756   0.085290
     4  C   -0.002188   0.002858  -0.000316  -0.047592   0.051148  -0.038911
     5  O   -0.000006   0.000110   0.000090   0.001204  -0.000534   0.003035
     6  O    0.000542  -0.000531   0.000845  -0.000992   0.013493   0.075735
     7  H   -0.000247   0.000256   0.000222   0.005232  -0.006527   0.004776
     8  H    0.000256   0.000023   0.000402  -0.000991   0.003943  -0.000314
     9  H    0.000062  -0.000214  -0.000127  -0.000309   0.000159   0.000128
    10  H   -0.001605   0.001251   0.002781   0.003735   0.014048  -0.000588
    11  H    0.000158   0.003279  -0.010184   0.005274  -0.030547   0.001191
    12  H   -0.001144  -0.002815  -0.006966   0.022182  -0.059177  -0.015357
    13  C    5.215406   0.372596  -0.040524   0.052350   0.053536   0.019605
    14  C    0.372596   5.406866   0.138305  -0.179588   0.031995  -0.038575
    15  N   -0.040524   0.138305   6.723053   0.166574  -0.011589  -0.044297
    16  C    0.052350  -0.179588   0.166574   6.102162  -0.132796   0.119967
    17  C    0.053536   0.031995  -0.011589  -0.132796   5.864791   0.130840
    18  N    0.019605  -0.038575  -0.044297   0.119967   0.130840   6.793207
    19  C   -0.054949  -0.114899   0.083924  -0.210610  -0.223913   0.275923
    20  H    0.404525  -0.047352   0.013471   0.002686   0.002726  -0.000941
    21  H    0.364296   0.017312  -0.015476  -0.013817  -0.008814  -0.000591
    22  H   -0.117289   0.489139  -0.069894  -0.012458  -0.002344  -0.004425
    23  H   -0.002821   0.003023  -0.078192   0.498298  -0.094640   0.019941
    24  H    0.000895   0.008354   0.034628  -0.148916   0.495247  -0.074504
    25  H   -0.016105   0.021631  -0.113913   0.002737   0.006134  -0.058048
              19         20         21         22         23         24
     1  C    0.043807   0.000142   0.000844  -0.000097  -0.000974  -0.002256
     2  C    0.059525  -0.001372   0.005687   0.001111  -0.001653  -0.002015
     3  C   -0.254758   0.001555  -0.005195  -0.000041   0.006489  -0.007367
     4  C    0.053081   0.000225  -0.000823  -0.000270  -0.001532   0.010972
     5  O   -0.001145   0.000001  -0.000022   0.000011   0.000033  -0.000502
     6  O   -0.052761   0.000056  -0.000341  -0.000151   0.000418  -0.000020
     7  H   -0.001788  -0.000019  -0.000304   0.000002   0.000308  -0.000130
     8  H   -0.003112   0.000015  -0.000021  -0.000001   0.000035   0.000236
     9  H   -0.001078   0.000003   0.000006  -0.000010  -0.000001  -0.000267
    10  H   -0.013071   0.001112  -0.003517  -0.000167   0.000921   0.000501
    11  H    0.038136  -0.001518   0.002612   0.000709  -0.000334  -0.001030
    12  H    0.030629  -0.000177   0.000229   0.000030   0.000787  -0.004105
    13  C   -0.054949   0.404525   0.364296  -0.117289  -0.002821   0.000895
    14  C   -0.114899  -0.047352   0.017312   0.489139   0.003023   0.008354
    15  N    0.083924   0.013471  -0.015476  -0.069894  -0.078192   0.034628
    16  C   -0.210610   0.002686  -0.013817  -0.012458   0.498298  -0.148916
    17  C   -0.223913   0.002726  -0.008814  -0.002344  -0.094640   0.495247
    18  N    0.275923  -0.000941  -0.000591  -0.004425   0.019941  -0.074504
    19  C    6.204274   0.001897  -0.012230  -0.007603  -0.019464   0.001539
    20  H    0.001897   0.510854  -0.035393  -0.007217   0.000520  -0.000107
    21  H   -0.012230  -0.035393   0.548437   0.011228  -0.003832   0.000586
    22  H   -0.007603  -0.007217   0.011228   0.522879  -0.000229   0.000027
    23  H   -0.019464   0.000520  -0.003832  -0.000229   0.522105  -0.009538
    24  H    0.001539  -0.000107   0.000586   0.000027  -0.009538   0.525004
    25  H    0.476695   0.000896   0.000359   0.001875  -0.001444  -0.001224
              25
     1  C    0.013242
     2  C   -0.010054
     3  C   -0.026845
     4  C    0.009737
     5  O    0.001426
     6  O    0.002357
     7  H   -0.000545
     8  H   -0.000100
     9  H   -0.000100
    10  H    0.000597
    11  H   -0.001970
    12  H   -0.002292
    13  C   -0.016105
    14  C    0.021631
    15  N   -0.113913
    16  C    0.002737
    17  C    0.006134
    18  N   -0.058048
    19  C    0.476695
    20  H    0.000896
    21  H    0.000359
    22  H    0.001875
    23  H   -0.001444
    24  H   -0.001224
    25  H    0.524204
 Mulliken charges:
               1
     1  C   -0.662958
     2  C    0.980921
     3  C   -0.588774
     4  C   -0.413968
     5  O   -0.244127
     6  O   -0.278878
     7  H    0.157409
     8  H    0.164453
     9  H    0.188521
    10  H    0.149026
    11  H    0.101281
    12  H    0.447674
    13  C   -0.253905
    14  C   -0.111583
    15  N    0.194266
    16  C   -0.316332
    17  C   -0.078897
    18  N   -0.139981
    19  C   -0.298049
    20  H    0.153414
    21  H    0.148782
    22  H    0.195188
    23  H    0.161774
    24  H    0.173992
    25  H    0.170751
 Sum of Mulliken charges =  -0.00000
 Mulliken charges with hydrogens summed into heavy atoms:
               1
     1  C   -0.152574
     2  C    0.980921
     3  C   -0.338467
     4  C   -0.413968
     5  O   -0.244127
     6  O    0.168797
    13  C    0.048290
    14  C    0.083605
    15  N    0.194266
    16  C   -0.154558
    17  C    0.095095
    18  N   -0.139981
    19  C   -0.127298
 DipInt: DoE/N= T F RetVal/Mat= T F Init=T NMatP=  1 IDeriv=0 Min/MaxMlt=  0  4
 Entering OneElI...
 OneElI was handed 68719100673 working-precision words.
 Multipole integrals L=0 to 4 MinM= 0 MaxM= 0.
 Requested accuracy = 0.1000D-12
 ShPair: Thresh= 1.00D-13 NBox=     0 BxSize= 0.00D+00 RnKept= 1.63D+01
         NSMCal=                 9591 NSMKep=                8543
 PrmmSu-InSpLW:  IPartL=    0 NPrtUS=    1 NPrtUL=    1 DoSpLW=F IThBeg=    0 IThEnd=    0 NThAct=    1.
 PrsmSu:  NPrtUS=   1 ThrOK=F IAlg=1 NPAlg=1 LenDen=           0 ISkipM=0 DoSpLW=F IThBeg=    0 IThEnd=    0.
 Prism:   IPart=     0 DynPar=F LinDyn=F Incr=          85.
 PRISM was handed 68718539669 working-precision words and  8543 shell-pairs
 IPart=  0 NShTot=        8543 NBatch=         178 AvBLen=        48.0
 PrsmSu-ThDecC:  IPartSL=    0    0 NPrtUSL=    1    1 IThBeg=    0 IThEnd=    0 CPU=   -1 GPU=   -1 NThAct=    1.
 PrSmSu:  NxtVal=             86.
 Electronic moments (au):
        -96.00000000         -3.22894717          1.13001149          0.79414409
      -2305.25360460       -498.47831834       -349.57361862          0.38988640
          9.11128985         -1.72171083       -126.33816257       -326.81174049
       -398.02712696        181.97906862      -1291.30042722        865.06331969
        -83.41268786         -4.75893702       -129.27539375       -934.16285817
     -91004.88172814      -5750.81552824      -3487.36112727       6489.29766788
      -1174.23877235       1287.67103094         -5.30485532       -474.16709205
        -16.76939783     -10579.23805006      -8746.82247699      -1995.59914345
       -382.61221824       -957.32435235      -1187.72613304
 Electronic spatial extent (au):  <R**2>=           3153.3055
 DipInt: DoE/N= F T RetVal/Mat= T F Init=T NMatP=  1 IDeriv=0 Min/MaxMlt=  0  4
 Nuclear    moments (au):
         96.00000000          0.00000000         -0.00000000         -0.00000000
       2238.20106891        439.70401456        295.50208945          0.00000000
         -0.00000000         -0.00000000        -34.46405215        342.26131587
        399.86311969       -191.01341800       1326.12854129       -828.89610913
         65.07826881         -1.00985194        137.95570799        940.91916548
      81890.49118145       3951.75636938       2282.20866060      -6519.44023974
       1695.36840645      -1386.67208515         13.61891522        457.36537878
        -14.46322119       8922.92825509       7255.15520763       1502.02745219
        333.20934504       1026.67006337       1202.02076961
 Total      moments (au):
         -0.00000000         -3.22894717          1.13001149          0.79414409
        -67.05253569        -58.77430378        -54.07152917          0.38988640
          9.11128985         -1.72171083       -160.80221472         15.44957538
          1.83599273         -9.03434938         34.82811407         36.16721057
        -18.33441904         -5.76878896          8.68031424          6.75630731
      -9114.39054668      -1799.05915886      -1205.15246667        -30.14257186
        521.12963410        -99.00105421          8.31405990        -16.80171327
        -31.23261902      -1656.30979497      -1491.66726936       -493.57169126
        -49.40287320         69.34571102         14.29463657
 Traceless Quadrup. (au):
         -7.08641281          1.19181910          5.89459371          0.38988640
          9.11128985         -1.72171083
 Charge=             -0.0000 electrons
 Dipole moment (field-independent basis, Debye):
    X=             -8.2072    Y=              2.8722    Z=              2.0185  Tot=              8.9264
 Quadrupole moment (field-independent basis, Debye-Ang):
   XX=            -90.1880   YY=            -79.0535   ZZ=            -72.7281
   XY=              0.5244   XZ=             12.2550   YZ=             -2.3158
 Traceless Quadrupole moment (field-independent basis, Debye-Ang):
   XX=             -9.5315   YY=              1.6030   ZZ=              7.9284
   XY=              0.5244   XZ=             12.2550   YZ=             -2.3158
 Octapole moment (field-independent basis, Debye-Ang**2):
  XXX=           -114.4528  YYY=             10.9964  ZZZ=              1.3068  XYY=             -6.4303
  XXY=             24.7893  XXZ=             25.7424  XZZ=            -13.0497  YZZ=             -4.1060
  YYZ=              6.1783  XYZ=              4.8089
 Hexadecapole moment (field-independent basis, Debye-Ang**3):
 XXXX=          -3432.9165 YYYY=           -677.6119 ZZZZ=           -453.9182 XXXY=            -11.3531
 XXXZ=            196.2824 YYYX=            -37.2885 YYYZ=              3.1315 ZZZX=             -6.3283
 ZZZY=            -11.7637 XXYY=           -623.8457 XXZZ=           -561.8334 YYZZ=           -185.9028
 XXYZ=            -18.6075 YYXZ=             26.1189 ZZXY=              5.3840
 N-N= 7.544341654731D+02 E-N=-2.931870242898D+03  KE= 6.077030853866D+02
 Entering OneElI...
 OneElI was handed 68719182978 working-precision words.
 Calculate electrostatic properties
    NBasis =   370  MinDer = 0  MaxDer = 0
    NGrid  =    25  NMatD  =   1
 Requested accuracy = 0.1000D-12
 ShPair: Thresh= 1.00D-13 NBox=     0 BxSize= 0.00D+00 RnKept= 1.63D+01
         NSMCal=                 9591 NSMKep=                7982
 PrmmSu-InSpLW:  IPartL=    0 NPrtUS=  128 NPrtUL=    1 DoSpLW=F IThBeg=    0 IThEnd=  127 NThAct=  128.
 PrsmSu:  NPrtUS= 128 ThrOK=T IAlg=1 NPAlg=1 LenDen=           0 ISkipM=0 DoSpLW=F IThBeg=    0 IThEnd=  127.
 Prism:   IPart=     0 DynPar=F LinDyn=F Incr=          15.
 PRISM was handed   536705938 working-precision words and  7982 shell-pairs
 PRISM was handed   536705938 working-precision words and  7982 shell-pairs
 PRISM was handed   536705938 working-precision words and  7982 shell-pairs
 PRISM was handed   536705938 working-precision words and  7982 shell-pairs
 PRISM was handed   536705938 working-precision words and  7982 shell-pairs
 PRISM was handed   536705938 working-precision words and  7982 shell-pairs
 PRISM was handed   536705938 working-precision words and  7982 shell-pairs
 PRISM was handed   536705938 working-precision words and  7982 shell-pairs
 PRISM was handed   536705938 working-precision words and  7982 shell-pairs
 PRISM was handed   536705938 working-precision words and  7982 shell-pairs
 PRISM was handed   536705938 working-precision words and  7982 shell-pairs
 PRISM was handed   536705938 working-precision words and  7982 shell-pairs
 PRISM was handed   536705938 working-precision words and  7982 shell-pairs
 PRISM was handed   536705938 working-precision words and  7982 shell-pairs
 PRISM was handed   536705938 working-precision words and  7982 shell-pairs
 PRISM was handed   536705938 working-precision words and  7982 shell-pairs
 PRISM was handed   536705938 working-precision words and  7982 shell-pairs
 PRISM was handed   536705938 working-precision words and  7982 shell-pairs
 PRISM was handed   536705938 working-precision words and  7982 shell-pairs
 PRISM was handed   536705938 working-precision words and  7982 shell-pairs
 PRISM was handed   536705938 working-precision words and  7982 shell-pairs
 PRISM was handed   536705938 working-precision words and  7982 shell-pairs
 PRISM was handed   536705938 working-precision words and  7982 shell-pairs
 PRISM was handed   536705938 working-precision words and  7982 shell-pairs
 PRISM was handed   536705938 working-precision words and  7982 shell-pairs
 PRISM was handed   536705938 working-precision words and  7982 shell-pairs
 PRISM was handed   536705938 working-precision words and  7982 shell-pairs
 PRISM was handed   536705938 working-precision words and  7982 shell-pairs
 PRISM was handed   536705938 working-precision words and  7982 shell-pairs
 PRISM was handed   536705938 working-precision words and  7982 shell-pairs
 PRISM was handed   536705938 working-precision words and  7982 shell-pairs
 PRISM was handed   536705938 working-precision words and  7982 shell-pairs
 PRISM was handed   536705938 working-precision words and  7982 shell-pairs
 PRISM was handed   536705938 working-precision words and  7982 shell-pairs
 PRISM was handed   536705938 working-precision words and  7982 shell-pairs
 PRISM was handed   536705938 working-precision words and  7982 shell-pairs
 PRISM was handed   536705938 working-precision words and  7982 shell-pairs
 PRISM was handed   536705938 working-precision words and  7982 shell-pairs
 PRISM was handed   536705938 working-precision words and  7982 shell-pairs
 PRISM was handed   536705938 working-precision words and  7982 shell-pairs
 PRISM was handed   536705938 working-precision words and  7982 shell-pairs
 PRISM was handed   536705938 working-precision words and  7982 shell-pairs
 PRISM was handed   536705938 working-precision words and  7982 shell-pairs
 PRISM was handed   536705938 working-precision words and  7982 shell-pairs
 PRISM was handed   536705938 working-precision words and  7982 shell-pairs
 PRISM was handed   536705938 working-precision words and  7982 shell-pairs
 PRISM was handed   536705938 working-precision words and  7982 shell-pairs
 PRISM was handed   536705938 working-precision words and  7982 shell-pairs
 PRISM was handed   536705938 working-precision words and  7982 shell-pairs
 PRISM was handed   536705938 working-precision words and  7982 shell-pairs
 PRISM was handed   536705938 working-precision words and  7982 shell-pairs
 PRISM was handed   536705938 working-precision words and  7982 shell-pairs
 PRISM was handed   536705938 working-precision words and  7982 shell-pairs
 PRISM was handed   536705938 working-precision words and  7982 shell-pairs
 PRISM was handed   536705938 working-precision words and  7982 shell-pairs
 PRISM was handed   536705938 working-precision words and  7982 shell-pairs
 PRISM was handed   536705938 working-precision words and  7982 shell-pairs
 PRISM was handed   536705938 working-precision words and  7982 shell-pairs
 PRISM was handed   536705938 working-precision words and  7982 shell-pairs
 PRISM was handed   536705938 working-precision words and  7982 shell-pairs
 PRISM was handed   536705938 working-precision words and  7982 shell-pairs
 PRISM was handed   536705938 working-precision words and  7982 shell-pairs
 PRISM was handed   536705938 working-precision words and  7982 shell-pairs
 PRISM was handed   536705938 working-precision words and  7982 shell-pairs
 PRISM was handed   536705938 working-precision words and  7982 shell-pairs
 PRISM was handed   536705938 working-precision words and  7982 shell-pairs
 PRISM was handed   536705938 working-precision words and  7982 shell-pairs
 PRISM was handed   536705938 working-precision words and  7982 shell-pairs
 PRISM was handed   536705938 working-precision words and  7982 shell-pairs
 PRISM was handed   536705938 working-precision words and  7982 shell-pairs
 PRISM was handed   536705938 working-precision words and  7982 shell-pairs
 PRISM was handed   536705938 working-precision words and  7982 shell-pairs
 PRISM was handed   536705938 working-precision words and  7982 shell-pairs
 PRISM was handed   536705938 working-precision words and  7982 shell-pairs
 PRISM was handed   536705938 working-precision words and  7982 shell-pairs
 PRISM was handed   536705938 working-precision words and  7982 shell-pairs
 PRISM was handed   536705938 working-precision words and  7982 shell-pairs
 PRISM was handed   536705938 working-precision words and  7982 shell-pairs
 PRISM was handed   536705938 working-precision words and  7982 shell-pairs
 PRISM was handed   536705938 working-precision words and  7982 shell-pairs
 PRISM was handed   536705938 working-precision words and  7982 shell-pairs
 PRISM was handed   536705938 working-precision words and  7982 shell-pairs
 PRISM was handed   536705938 working-precision words and  7982 shell-pairs
 PRISM was handed   536705938 working-precision words and  7982 shell-pairs
 PRISM was handed   536705938 working-precision words and  7982 shell-pairs
 PRISM was handed   536705938 working-precision words and  7982 shell-pairs
 PRISM was handed   536705938 working-precision words and  7982 shell-pairs
 PRISM was handed   536705938 working-precision words and  7982 shell-pairs
 PRISM was handed   536705938 working-precision words and  7982 shell-pairs
 PRISM was handed   536705938 working-precision words and  7982 shell-pairs
 PRISM was handed   536705938 working-precision words and  7982 shell-pairs
 PRISM was handed   536705938 working-precision words and  7982 shell-pairs
 PRISM was handed   536705938 working-precision words and  7982 shell-pairs
 PRISM was handed   536705938 working-precision words and  7982 shell-pairs
 PRISM was handed   536705938 working-precision words and  7982 shell-pairs
 PRISM was handed   536705938 working-precision words and  7982 shell-pairs
 PRISM was handed   536705938 working-precision words and  7982 shell-pairs
 PRISM was handed   536705938 working-precision words and  7982 shell-pairs
 PRISM was handed   536705938 working-precision words and  7982 shell-pairs
 PRISM was handed   536705938 working-precision words and  7982 shell-pairs
 PRISM was handed   536705938 working-precision words and  7982 shell-pairs
 PRISM was handed   536705938 working-precision words and  7982 shell-pairs
 PRISM was handed   536705938 working-precision words and  7982 shell-pairs
 PRISM was handed   536705938 working-precision words and  7982 shell-pairs
 PRISM was handed   536705938 working-precision words and  7982 shell-pairs
 PRISM was handed   536705938 working-precision words and  7982 shell-pairs
 PRISM was handed   536705938 working-precision words and  7982 shell-pairs
 PRISM was handed   536705938 working-precision words and  7982 shell-pairs
 PRISM was handed   536705938 working-precision words and  7982 shell-pairs
 PRISM was handed   536705938 working-precision words and  7982 shell-pairs
 PRISM was handed   536705938 working-precision words and  7982 shell-pairs
 PRISM was handed   536705938 working-precision words and  7982 shell-pairs
 PRISM was handed   536705938 working-precision words and  7982 shell-pairs
 PRISM was handed   536705938 working-precision words and  7982 shell-pairs
 PRISM was handed   536705938 working-precision words and  7982 shell-pairs
 PRISM was handed   536705938 working-precision words and  7982 shell-pairs
 PRISM was handed   536705938 working-precision words and  7982 shell-pairs
 PRISM was handed   536705938 working-precision words and  7982 shell-pairs
 PRISM was handed   536705938 working-precision words and  7982 shell-pairs
 PRISM was handed   536705938 working-precision words and  7982 shell-pairs
 PRISM was handed   536705938 working-precision words and  7982 shell-pairs
 PRISM was handed   536705938 working-precision words and  7982 shell-pairs
 PRISM was handed   536705938 working-precision words and  7982 shell-pairs
 PRISM was handed   536705938 working-precision words and  7982 shell-pairs
 PRISM was handed   536705938 working-precision words and  7982 shell-pairs
 PRISM was handed   536705938 working-precision words and  7982 shell-pairs
 PRISM was handed   536705938 working-precision words and  7982 shell-pairs
 PRISM was handed   536705938 working-precision words and  7982 shell-pairs
 IPart= 55 NShTot=        1475 NBatch=          60 AvBLen=        24.6
 PrsmSu-ThDecC:  IPartSL=   55    0 NPrtUSL=  128    1 IThBeg=    0 IThEnd=  127 CPU=   -1 GPU=   -1 NThAct=  128.
 IPart= 52 NShTot=        1550 NBatch=          63 AvBLen=        24.6
 PrsmSu-ThDecC:  IPartSL=   52    0 NPrtUSL=  128    1 IThBeg=    0 IThEnd=  127 CPU=   -1 GPU=   -1 NThAct=  127.
 IPart= 46 NShTot=        1575 NBatch=          64 AvBLen=        24.6
 PrsmSu-ThDecC:  IPartSL=   46    0 NPrtUSL=  128    1 IThBeg=    0 IThEnd=  127 CPU=   -1 GPU=   -1 NThAct=  126.
 IPart= 20 NShTot=        1800 NBatch=          73 AvBLen=        24.7
 PrsmSu-ThDecC:  IPartSL=   20    0 NPrtUSL=  128    1 IThBeg=    0 IThEnd=  127 CPU=   -1 GPU=   -1 NThAct=  125.
 IPart= 18 NShTot=        1800 NBatch=          73 AvBLen=        24.7
 PrsmSu-ThDecC:  IPartSL=   18    0 NPrtUSL=  128    1 IThBeg=    0 IThEnd=  127 CPU=   -1 GPU=   -1 NThAct=  124.
 IPart=  8 NShTot=        2150 NBatch=          87 AvBLen=        24.7
 PrsmSu-ThDecC:  IPartSL=    8    0 NPrtUSL=  128    1 IThBeg=    0 IThEnd=  127 CPU=   -1 GPU=   -1 NThAct=  123.
 IPart= 54 NShTot=        1500 NBatch=          61 AvBLen=        24.6
 PrsmSu-ThDecC:  IPartSL=   54    0 NPrtUSL=  128    1 IThBeg=    0 IThEnd=  127 CPU=   -1 GPU=   -1 NThAct=  122.
 IPart= 10 NShTot=        2100 NBatch=          85 AvBLen=        24.7
 IPart= 36 NShTot=        1700 NBatch=          69 AvBLen=        24.6
 PrsmSu-ThDecC:  IPartSL=   10    0 NPrtUSL=  128    1 IThBeg=    0 IThEnd=  127 CPU=   -1 GPU=   -1 NThAct=  121.
 PrsmSu-ThDecC:  IPartSL=   36    0 NPrtUSL=  128    1 IThBeg=    0 IThEnd=  127 CPU=   -1 GPU=   -1 NThAct=  120.
 IPart= 57 NShTot=        1475 NBatch=          60 AvBLen=        24.6
 PrsmSu-ThDecC:  IPartSL=   57    0 NPrtUSL=  128    1 IThBeg=    0 IThEnd=  127 CPU=   -1 GPU=   -1 NThAct=  119.
 IPart= 27 NShTot=        1725 NBatch=          70 AvBLen=        24.6
 PrsmSu-ThDecC:  IPartSL=   27    0 NPrtUSL=  128    1 IThBeg=    0 IThEnd=  127 CPU=   -1 GPU=   -1 NThAct=  118.
 IPart=  4 NShTot=        2400 NBatch=          97 AvBLen=        24.7
 IPart= 76 NShTot=        1400 NBatch=          56 AvBLen=        25.0
 PrsmSu-ThDecC:  IPartSL=    4    0 NPrtUSL=  128    1 IThBeg=    0 IThEnd=  127 CPU=   -1 GPU=   -1 NThAct=  117.
 PrsmSu-ThDecC:  IPartSL=   76    0 NPrtUSL=  128    1 IThBeg=    0 IThEnd=  127 CPU=   -1 GPU=   -1 NThAct=  116.
 IPart=  0 NShTot=        2625 NBatch=         106 AvBLen=        24.8
 PrsmSu-ThDecC:  IPartSL=    0    0 NPrtUSL=  128    1 IThBeg=    0 IThEnd=  127 CPU=   -1 GPU=   -1 NThAct=  115.
 IPart=  9 NShTot=        2125 NBatch=          86 AvBLen=        24.7
 PrsmSu-ThDecC:  IPartSL=    9    0 NPrtUSL=  128    1 IThBeg=    0 IThEnd=  127 CPU=   -1 GPU=   -1 NThAct=  114.
 IPart=  2 NShTot=        2525 NBatch=         102 AvBLen=        24.8
 PrsmSu-ThDecC:  IPartSL=    2    0 NPrtUSL=  128    1 IThBeg=    0 IThEnd=  127 CPU=   -1 GPU=   -1 NThAct=  113.
 IPart= 85 NShTot=        1375 NBatch=          55 AvBLen=        25.0
 IPart= 91 NShTot=        1375 NBatch=          55 AvBLen=        25.0
 PrsmSu-ThDecC:  IPartSL=   85    0 NPrtUSL=  128    1 IThBeg=    0 IThEnd=  127 CPU=   -1 GPU=   -1 NThAct=  112.
 PrsmSu-ThDecC:  IPartSL=   91    0 NPrtUSL=  128    1 IThBeg=    0 IThEnd=  127 CPU=   -1 GPU=   -1 NThAct=  111.
 IPart= 87 NShTot=        1375 NBatch=          55 AvBLen=        25.0
 PrsmSu-ThDecC:  IPartSL=   87    0 NPrtUSL=  128    1 IThBeg=    0 IThEnd=  127 CPU=   -1 GPU=   -1 NThAct=  110.
 IPart= 45 NShTot=        1575 NBatch=          64 AvBLen=        24.6
 PrsmSu-ThDecC:  IPartSL=   45    0 NPrtUSL=  128    1 IThBeg=    0 IThEnd=  127 CPU=   -1 GPU=   -1 NThAct=  109.
 IPart= 56 NShTot=        1475 NBatch=          60 AvBLen=        24.6
 PrsmSu-ThDecC:  IPartSL=   56    0 NPrtUSL=  128    1 IThBeg=    0 IThEnd=  127 CPU=   -1 GPU=   -1 NThAct=  108.
 IPart= 33 NShTot=        1700 NBatch=          69 AvBLen=        24.6
 PrsmSu-ThDecC:  IPartSL=   33    0 NPrtUSL=  128    1 IThBeg=    0 IThEnd=  127 CPU=   -1 GPU=   -1 NThAct=  107.
 IPart= 28 NShTot=        1725 NBatch=          70 AvBLen=        24.6
 PrsmSu-ThDecC:  IPartSL=   28    0 NPrtUSL=  128    1 IThBeg=    0 IThEnd=  127 CPU=   -1 GPU=   -1 NThAct=  106.
 IPart= 16 NShTot=        1850 NBatch=          75 AvBLen=        24.7
 PrsmSu-ThDecC:  IPartSL=   16    0 NPrtUSL=  128    1 IThBeg=    0 IThEnd=  127 CPU=   -1 GPU=   -1 NThAct=  105.
 IPart= 61 NShTot=        1475 NBatch=          60 AvBLen=        24.6
 PrsmSu-ThDecC:  IPartSL=   61    0 NPrtUSL=  128    1 IThBeg=    0 IThEnd=  127 CPU=   -1 GPU=   -1 NThAct=  104.
 IPart=  3 NShTot=        2425 NBatch=          98 AvBLen=        24.7
 PrsmSu-ThDecC:  IPartSL=    3    0 NPrtUSL=  128    1 IThBeg=    0 IThEnd=  127 CPU=   -1 GPU=   -1 NThAct=  103.
 IPart=118 NShTot=        1250 NBatch=          50 AvBLen=        25.0
 PrsmSu-ThDecC:  IPartSL=  118    0 NPrtUSL=  128    1 IThBeg=    0 IThEnd=  127 CPU=   -1 GPU=   -1 NThAct=  102.
 IPart= 14 NShTot=        1925 NBatch=          78 AvBLen=        24.7
 PrsmSu-ThDecC:  IPartSL=   14    0 NPrtUSL=  128    1 IThBeg=    0 IThEnd=  127 CPU=   -1 GPU=   -1 NThAct=  101.
 IPart= 21 NShTot=        1775 NBatch=          72 AvBLen=        24.7
 PrsmSu-ThDecC:  IPartSL=   21    0 NPrtUSL=  128    1 IThBeg=    0 IThEnd=  127 CPU=   -1 GPU=   -1 NThAct=  100.
 IPart= 97 NShTot=        1325 NBatch=          53 AvBLen=        25.0
 PrsmSu-ThDecC:  IPartSL=   97    0 NPrtUSL=  128    1 IThBeg=    0 IThEnd=  127 CPU=   -1 GPU=   -1 NThAct=   99.
 IPart= 82 NShTot=        1400 NBatch=          56 AvBLen=        25.0
 PrsmSu-ThDecC:  IPartSL=   82    0 NPrtUSL=  128    1 IThBeg=    0 IThEnd=  127 CPU=   -1 GPU=   -1 NThAct=   98.
 IPart= 24 NShTot=        1775 NBatch=          72 AvBLen=        24.7
 PrsmSu-ThDecC:  IPartSL=   24    0 NPrtUSL=  128    1 IThBeg=    0 IThEnd=  127 CPU=   -1 GPU=   -1 NThAct=   97.
 IPart= 73 NShTot=        1400 NBatch=          56 AvBLen=        25.0
 PrsmSu-ThDecC:  IPartSL=   73    0 NPrtUSL=  128    1 IThBeg=    0 IThEnd=  127 CPU=   -1 GPU=   -1 NThAct=   96.
 IPart= 22 NShTot=        1775 NBatch=          72 AvBLen=        24.7
 PrsmSu-ThDecC:  IPartSL=   22    0 NPrtUSL=  128    1 IThBeg=    0 IThEnd=  127 CPU=   -1 GPU=   -1 NThAct=   95.
 IPart=  1 NShTot=        2525 NBatch=         102 AvBLen=        24.8
 PrsmSu-ThDecC:  IPartSL=    1    0 NPrtUSL=  128    1 IThBeg=    0 IThEnd=  127 CPU=   -1 GPU=   -1 NThAct=   94.
 IPart= 79 NShTot=        1400 NBatch=          56 AvBLen=        25.0
 PrsmSu-ThDecC:  IPartSL=   79    0 NPrtUSL=  128    1 IThBeg=    0 IThEnd=  127 CPU=   -1 GPU=   -1 NThAct=   93.
 IPart=101 NShTot=        1275 NBatch=          51 AvBLen=        25.0
 PrsmSu-ThDecC:  IPartSL=  101    0 NPrtUSL=  128    1 IThBeg=    0 IThEnd=  127 CPU=   -1 GPU=   -1 NThAct=   92.
 IPart=105 NShTot=        1275 NBatch=          51 AvBLen=        25.0
 PrsmSu-ThDecC:  IPartSL=  105    0 NPrtUSL=  128    1 IThBeg=    0 IThEnd=  127 CPU=   -1 GPU=   -1 NThAct=   91.
 IPart=109 NShTot=        1275 NBatch=          51 AvBLen=        25.0
 PrsmSu-ThDecC:  IPartSL=  109    0 NPrtUSL=  128    1 IThBeg=    0 IThEnd=  127 CPU=   -1 GPU=   -1 NThAct=   90.
 IPart= 49 NShTot=        1550 NBatch=          63 AvBLen=        24.6
 PrsmSu-ThDecC:  IPartSL=   49    0 NPrtUSL=  128    1 IThBeg=    0 IThEnd=  127 CPU=   -1 GPU=   -1 NThAct=   89.
 IPart=104 NShTot=        1275 NBatch=          51 AvBLen=        25.0
 PrsmSu-ThDecC:  IPartSL=  104    0 NPrtUSL=  128    1 IThBeg=    0 IThEnd=  127 CPU=   -1 GPU=   -1 NThAct=   88.
 IPart= 39 NShTot=        1625 NBatch=          66 AvBLen=        24.6
 PrsmSu-ThDecC:  IPartSL=   39    0 NPrtUSL=  128    1 IThBeg=    0 IThEnd=  127 CPU=   -1 GPU=   -1 NThAct=   87.
 IPart= 34 NShTot=        1700 NBatch=          69 AvBLen=        24.6
 PrsmSu-ThDecC:  IPartSL=   34    0 NPrtUSL=  128    1 IThBeg=    0 IThEnd=  127 CPU=   -1 GPU=   -1 NThAct=   86.
 IPart= 72 NShTot=        1400 NBatch=          56 AvBLen=        25.0
 PrsmSu-ThDecC:  IPartSL=   72    0 NPrtUSL=  128    1 IThBeg=    0 IThEnd=  127 CPU=   -1 GPU=   -1 NThAct=   85.
 IPart= 48 NShTot=        1550 NBatch=          63 AvBLen=        24.6
 PrsmSu-ThDecC:  IPartSL=   48    0 NPrtUSL=  128    1 IThBeg=    0 IThEnd=  127 CPU=   -1 GPU=   -1 NThAct=   84.
 IPart=103 NShTot=        1275 NBatch=          51 AvBLen=        25.0
 PrsmSu-ThDecC:  IPartSL=  103    0 NPrtUSL=  128    1 IThBeg=    0 IThEnd=  127 CPU=   -1 GPU=   -1 NThAct=   83.
 IPart= 62 NShTot=        1450 NBatch=          59 AvBLen=        24.6
 PrsmSu-ThDecC:  IPartSL=   62    0 NPrtUSL=  128    1 IThBeg=    0 IThEnd=  127 CPU=   -1 GPU=   -1 NThAct=   82.
 IPart= 92 NShTot=        1375 NBatch=          55 AvBLen=        25.0
 PrsmSu-ThDecC:  IPartSL=   92    0 NPrtUSL=  128    1 IThBeg=    0 IThEnd=  127 CPU=   -1 GPU=   -1 NThAct=   81.
 IPart=  7 NShTot=        2175 NBatch=          88 AvBLen=        24.7
 PrsmSu-ThDecC:  IPartSL=    7    0 NPrtUSL=  128    1 IThBeg=    0 IThEnd=  127 CPU=   -1 GPU=   -1 NThAct=   80.
 IPart=  6 NShTot=        2300 NBatch=          93 AvBLen=        24.7
 PrsmSu-ThDecC:  IPartSL=    6    0 NPrtUSL=  128    1 IThBeg=    0 IThEnd=  127 CPU=   -1 GPU=   -1 NThAct=   79.
 IPart= 63 NShTot=        1450 NBatch=          59 AvBLen=        24.6
 PrsmSu-ThDecC:  IPartSL=   63    0 NPrtUSL=  128    1 IThBeg=    0 IThEnd=  127 CPU=   -1 GPU=   -1 NThAct=   78.
 IPart=108 NShTot=        1275 NBatch=          51 AvBLen=        25.0
 IPart=124 NShTot=        1250 NBatch=          50 AvBLen=        25.0
 PrsmSu-ThDecC:  IPartSL=  108    0 NPrtUSL=  128    1 IThBeg=    0 IThEnd=  127 CPU=   -1 GPU=   -1 NThAct=   77.
 PrsmSu-ThDecC:  IPartSL=  124    0 NPrtUSL=  128    1 IThBeg=    0 IThEnd=  127 CPU=   -1 GPU=   -1 NThAct=   76.
 IPart=112 NShTot=        1275 NBatch=          51 AvBLen=        25.0
 PrsmSu-ThDecC:  IPartSL=  112    0 NPrtUSL=  128    1 IThBeg=    0 IThEnd=  127 CPU=   -1 GPU=   -1 NThAct=   75.
 IPart= 15 NShTot=        1875 NBatch=          76 AvBLen=        24.7
 IPart=123 NShTot=        1250 NBatch=          50 AvBLen=        25.0
 PrsmSu-ThDecC:  IPartSL=   15    0 NPrtUSL=  128    1 IThBeg=    0 IThEnd=  127 CPU=   -1 GPU=   -1 NThAct=   74.
 PrsmSu-ThDecC:  IPartSL=  123    0 NPrtUSL=  128    1 IThBeg=    0 IThEnd=  127 CPU=   -1 GPU=   -1 NThAct=   73.
 IPart=121 NShTot=        1250 NBatch=          50 AvBLen=        25.0
 PrsmSu-ThDecC:  IPartSL=  121    0 NPrtUSL=  128    1 IThBeg=    0 IThEnd=  127 CPU=   -1 GPU=   -1 NThAct=   72.
 IPart=114 NShTot=        1275 NBatch=          51 AvBLen=        25.0
 IPart= 88 NShTot=        1375 NBatch=          55 AvBLen=        25.0
 IPart=115 NShTot=        1275 NBatch=          51 AvBLen=        25.0
 IPart= 83 NShTot=        1375 NBatch=          55 AvBLen=        25.0
 IPart=126 NShTot=        1250 NBatch=          50 AvBLen=        25.0
 PrsmSu-ThDecC:  IPartSL=  114    0 NPrtUSL=  128    1 IThBeg=    0 IThEnd=  127 CPU=   -1 GPU=   -1 NThAct=   71.
 IPart=110 NShTot=        1275 NBatch=          51 AvBLen=        25.0
 IPart= 81 NShTot=        1400 NBatch=          56 AvBLen=        25.0
 IPart=113 NShTot=        1275 NBatch=          51 AvBLen=        25.0
 IPart= 12 NShTot=        2050 NBatch=          83 AvBLen=        24.7
 PrsmSu-ThDecC:  IPartSL=   88    0 NPrtUSL=  128    1 IThBeg=    0 IThEnd=  127 CPU=   -1 GPU=   -1 NThAct=   70.
 IPart= 70 NShTot=        1400 NBatch=          56 AvBLen=        25.0
 PrsmSu-ThDecC:  IPartSL=   12    0 NPrtUSL=  128    1 IThBeg=    0 IThEnd=  127 CPU=   -1 GPU=   -1 NThAct=   69.
 PrsmSu-ThDecC:  IPartSL=   70    0 NPrtUSL=  128    1 IThBeg=    0 IThEnd=  127 CPU=   -1 GPU=   -1 NThAct=   68.
 PrsmSu-ThDecC:  IPartSL=  113    0 NPrtUSL=  128    1 IThBeg=    0 IThEnd=  127 CPU=   -1 GPU=   -1 NThAct=   67.
 PrsmSu-ThDecC:  IPartSL=  115    0 NPrtUSL=  128    1 IThBeg=    0 IThEnd=  127 CPU=   -1 GPU=   -1 NThAct=   66.
 IPart= 68 NShTot=        1425 NBatch=          58 AvBLen=        24.6
 PrsmSu-ThDecC:  IPartSL=   81    0 NPrtUSL=  128    1 IThBeg=    0 IThEnd=  127 CPU=   -1 GPU=   -1 NThAct=   65.
 PrsmSu-ThDecC:  IPartSL=   68    0 NPrtUSL=  128    1 IThBeg=    0 IThEnd=  127 CPU=   -1 GPU=   -1 NThAct=   64.
 PrsmSu-ThDecC:  IPartSL=  110    0 NPrtUSL=  128    1 IThBeg=    0 IThEnd=  127 CPU=   -1 GPU=   -1 NThAct=   63.
 PrsmSu-ThDecC:  IPartSL=   83    0 NPrtUSL=  128    1 IThBeg=    0 IThEnd=  127 CPU=   -1 GPU=   -1 NThAct=   62.
 PrsmSu-ThDecC:  IPartSL=  126    0 NPrtUSL=  128    1 IThBeg=    0 IThEnd=  127 CPU=   -1 GPU=   -1 NThAct=   61.
 IPart= 59 NShTot=        1475 NBatch=          60 AvBLen=        24.6
 IPart= 38 NShTot=        1650 NBatch=          67 AvBLen=        24.6
 PrsmSu-ThDecC:  IPartSL=   59    0 NPrtUSL=  128    1 IThBeg=    0 IThEnd=  127 CPU=   -1 GPU=   -1 NThAct=   60.
 IPart= 32 NShTot=        1700 NBatch=          69 AvBLen=        24.6
 PrsmSu-ThDecC:  IPartSL=   38    0 NPrtUSL=  128    1 IThBeg=    0 IThEnd=  127 CPU=   -1 GPU=   -1 NThAct=   59.
 PrsmSu-ThDecC:  IPartSL=   32    0 NPrtUSL=  128    1 IThBeg=    0 IThEnd=  127 CPU=   -1 GPU=   -1 NThAct=   58.
 IPart= 17 NShTot=        1825 NBatch=          74 AvBLen=        24.7
 PrsmSu-ThDecC:  IPartSL=   17    0 NPrtUSL=  128    1 IThBeg=    0 IThEnd=  127 CPU=   -1 GPU=   -1 NThAct=   57.
 IPart= 60 NShTot=        1475 NBatch=          60 AvBLen=        24.6
 PrsmSu-ThDecC:  IPartSL=   60    0 NPrtUSL=  128    1 IThBeg=    0 IThEnd=  127 CPU=   -1 GPU=   -1 NThAct=   56.
 IPart= 64 NShTot=        1450 NBatch=          59 AvBLen=        24.6
 PrsmSu-ThDecC:  IPartSL=   64    0 NPrtUSL=  128    1 IThBeg=    0 IThEnd=  127 CPU=   -1 GPU=   -1 NThAct=   55.
 IPart= 40 NShTot=        1625 NBatch=          66 AvBLen=        24.6
 PrsmSu-ThDecC:  IPartSL=   40    0 NPrtUSL=  128    1 IThBeg=    0 IThEnd=  127 CPU=   -1 GPU=   -1 NThAct=   54.
 IPart= 47 NShTot=        1575 NBatch=          64 AvBLen=        24.6
 PrsmSu-ThDecC:  IPartSL=   47    0 NPrtUSL=  128    1 IThBeg=    0 IThEnd=  127 CPU=   -1 GPU=   -1 NThAct=   53.
 IPart= 31 NShTot=        1725 NBatch=          70 AvBLen=        24.6
 PrsmSu-ThDecC:  IPartSL=   31    0 NPrtUSL=  128    1 IThBeg=    0 IThEnd=  127 CPU=   -1 GPU=   -1 NThAct=   52.
 IPart=  5 NShTot=        2375 NBatch=          96 AvBLen=        24.7
 PrsmSu-ThDecC:  IPartSL=    5    0 NPrtUSL=  128    1 IThBeg=    0 IThEnd=  127 CPU=   -1 GPU=   -1 NThAct=   51.
 IPart= 74 NShTot=        1400 NBatch=          56 AvBLen=        25.0
 PrsmSu-ThDecC:  IPartSL=   74    0 NPrtUSL=  128    1 IThBeg=    0 IThEnd=  127 CPU=   -1 GPU=   -1 NThAct=   50.
 IPart=122 NShTot=        1250 NBatch=          50 AvBLen=        25.0
 PrsmSu-ThDecC:  IPartSL=  122    0 NPrtUSL=  128    1 IThBeg=    0 IThEnd=  127 CPU=   -1 GPU=   -1 NThAct=   49.
 IPart= 65 NShTot=        1450 NBatch=          59 AvBLen=        24.6
 PrsmSu-ThDecC:  IPartSL=   65    0 NPrtUSL=  128    1 IThBeg=    0 IThEnd=  127 CPU=   -1 GPU=   -1 NThAct=   48.
 IPart= 78 NShTot=        1400 NBatch=          56 AvBLen=        25.0
 PrsmSu-ThDecC:  IPartSL=   78    0 NPrtUSL=  128    1 IThBeg=    0 IThEnd=  127 CPU=   -1 GPU=   -1 NThAct=   47.
 IPart= 58 NShTot=        1475 NBatch=          60 AvBLen=        24.6
 PrsmSu-ThDecC:  IPartSL=   58    0 NPrtUSL=  128    1 IThBeg=    0 IThEnd=  127 CPU=   -1 GPU=   -1 NThAct=   46.
 IPart= 42 NShTot=        1625 NBatch=          66 AvBLen=        24.6
 PrsmSu-ThDecC:  IPartSL=   42    0 NPrtUSL=  128    1 IThBeg=    0 IThEnd=  127 CPU=   -1 GPU=   -1 NThAct=   45.
 IPart= 98 NShTot=        1325 NBatch=          53 AvBLen=        25.0
 PrsmSu-ThDecC:  IPartSL=   98    0 NPrtUSL=  128    1 IThBeg=    0 IThEnd=  127 CPU=   -1 GPU=   -1 NThAct=   44.
 IPart= 23 NShTot=        1775 NBatch=          72 AvBLen=        24.7
 PrsmSu-ThDecC:  IPartSL=   23    0 NPrtUSL=  128    1 IThBeg=    0 IThEnd=  127 CPU=   -1 GPU=   -1 NThAct=   43.
 IPart= 89 NShTot=        1375 NBatch=          55 AvBLen=        25.0
 PrsmSu-ThDecC:  IPartSL=   89    0 NPrtUSL=  128    1 IThBeg=    0 IThEnd=  127 CPU=   -1 GPU=   -1 NThAct=   42.
 IPart= 53 NShTot=        1525 NBatch=          62 AvBLen=        24.6
 PrsmSu-ThDecC:  IPartSL=   53    0 NPrtUSL=  128    1 IThBeg=    0 IThEnd=  127 CPU=   -1 GPU=   -1 NThAct=   41.
 IPart=107 NShTot=        1275 NBatch=          51 AvBLen=        25.0
 PrsmSu-ThDecC:  IPartSL=  107    0 NPrtUSL=  128    1 IThBeg=    0 IThEnd=  127 CPU=   -1 GPU=   -1 NThAct=   40.
 IPart= 29 NShTot=        1725 NBatch=          70 AvBLen=        24.6
 PrsmSu-ThDecC:  IPartSL=   29    0 NPrtUSL=  128    1 IThBeg=    0 IThEnd=  127 CPU=   -1 GPU=   -1 NThAct=   39.
 IPart= 41 NShTot=        1625 NBatch=          66 AvBLen=        24.6
 PrsmSu-ThDecC:  IPartSL=   41    0 NPrtUSL=  128    1 IThBeg=    0 IThEnd=  127 CPU=   -1 GPU=   -1 NThAct=   38.
 IPart= 37 NShTot=        1675 NBatch=          68 AvBLen=        24.6
 PrsmSu-ThDecC:  IPartSL=   37    0 NPrtUSL=  128    1 IThBeg=    0 IThEnd=  127 CPU=   -1 GPU=   -1 NThAct=   37.
 IPart=100 NShTot=        1300 NBatch=          52 AvBLen=        25.0
 PrsmSu-ThDecC:  IPartSL=  100    0 NPrtUSL=  128    1 IThBeg=    0 IThEnd=  127 CPU=   -1 GPU=   -1 NThAct=   36.
 IPart=106 NShTot=        1275 NBatch=          51 AvBLen=        25.0
 PrsmSu-ThDecC:  IPartSL=  106    0 NPrtUSL=  128    1 IThBeg=    0 IThEnd=  127 CPU=   -1 GPU=   -1 NThAct=   35.
 IPart=125 NShTot=        1250 NBatch=          50 AvBLen=        25.0
 PrsmSu-ThDecC:  IPartSL=  125    0 NPrtUSL=  128    1 IThBeg=    0 IThEnd=  127 CPU=   -1 GPU=   -1 NThAct=   34.
 IPart= 69 NShTot=        1400 NBatch=          56 AvBLen=        25.0
 PrsmSu-ThDecC:  IPartSL=   69    0 NPrtUSL=  128    1 IThBeg=    0 IThEnd=  127 CPU=   -1 GPU=   -1 NThAct=   33.
 IPart= 66 NShTot=        1450 NBatch=          59 AvBLen=        24.6
 PrsmSu-ThDecC:  IPartSL=   66    0 NPrtUSL=  128    1 IThBeg=    0 IThEnd=  127 CPU=   -1 GPU=   -1 NThAct=   32.
 IPart= 71 NShTot=        1400 NBatch=          56 AvBLen=        25.0
 PrsmSu-ThDecC:  IPartSL=   71    0 NPrtUSL=  128    1 IThBeg=    0 IThEnd=  127 CPU=   -1 GPU=   -1 NThAct=   31.
 IPart= 75 NShTot=        1400 NBatch=          56 AvBLen=        25.0
 PrsmSu-ThDecC:  IPartSL=   75    0 NPrtUSL=  128    1 IThBeg=    0 IThEnd=  127 CPU=   -1 GPU=   -1 NThAct=   30.
 IPart= 51 NShTot=        1550 NBatch=          63 AvBLen=        24.6
 PrsmSu-ThDecC:  IPartSL=   51    0 NPrtUSL=  128    1 IThBeg=    0 IThEnd=  127 CPU=   -1 GPU=   -1 NThAct=   29.
 IPart= 13 NShTot=        1925 NBatch=          78 AvBLen=        24.7
 IPart= 25 NShTot=        1775 NBatch=          72 AvBLen=        24.7
 PrsmSu-ThDecC:  IPartSL=   13    0 NPrtUSL=  128    1 IThBeg=    0 IThEnd=  127 CPU=   -1 GPU=   -1 NThAct=   28.
 IPart= 99 NShTot=        1300 NBatch=          52 AvBLen=        25.0
 PrsmSu-ThDecC:  IPartSL=   25    0 NPrtUSL=  128    1 IThBeg=    0 IThEnd=  127 CPU=   -1 GPU=   -1 NThAct=   27.
 PrsmSu-ThDecC:  IPartSL=   99    0 NPrtUSL=  128    1 IThBeg=    0 IThEnd=  127 CPU=   -1 GPU=   -1 NThAct=   26.
 IPart= 93 NShTot=        1375 NBatch=          55 AvBLen=        25.0
 PrsmSu-ThDecC:  IPartSL=   93    0 NPrtUSL=  128    1 IThBeg=    0 IThEnd=  127 CPU=   -1 GPU=   -1 NThAct=   25.
 IPart= 95 NShTot=        1350 NBatch=          54 AvBLen=        25.0
 PrsmSu-ThDecC:  IPartSL=   95    0 NPrtUSL=  128    1 IThBeg=    0 IThEnd=  127 CPU=   -1 GPU=   -1 NThAct=   24.
 IPart=111 NShTot=        1275 NBatch=          51 AvBLen=        25.0
[...]
 **** Fit      -0.003323
 **** Fit      -0.003444
 **** Fit      -0.003583
 **** Fit      -0.003709
 **** Fit      -0.003801
 **** Fit      -0.002831
 **** Fit      -0.002637
 **** Fit      -0.002466
 **** Fit      -0.002342
 **** Fit      -0.002287
 **** Fit      -0.002318
 **** Fit      -0.002428
 **** Fit      -0.002590
 **** Fit      -0.002769
 **** Fit      -0.002934
 **** Fit      -0.003065
 **** Fit      -0.002027
 **** Fit      -0.001828
 **** Fit      -0.001657
 **** Fit      -0.001538
 **** Fit      -0.001495
 **** Fit      -0.001541
 **** Fit      -0.001670
 **** Fit      -0.001855
 **** Fit      -0.002059
 **** Fit      -0.002253
 **** Fit      -0.001193
 **** Fit      -0.001036
 **** Fit      -0.000933
 **** Fit      -0.000903
 **** Fit      -0.000957
 **** Fit      -0.001088
 **** Fit      -0.001273
 **** Fit      -0.001481
 **** Fit      -0.000496
 **** Fit      -0.000480
 **** Fit      -0.000536
 **** Fit      -0.000660
 **** Fit      -0.000832
 **** Fit      -0.041787
 **** Fit      -0.042837
 **** Fit      -0.043060
 **** Fit      -0.042437
 **** Fit      -0.040902
 **** Fit      -0.042833
 **** Fit      -0.043994
 **** Fit      -0.044245
 **** Fit      -0.043558
 **** Fit      -0.042032
 **** Fit      -0.038365
 **** Fit      -0.040968
 **** Fit      -0.043012
 **** Fit      -0.044252
 **** Fit      -0.044524
 **** Fit      -0.043801
 **** Fit      -0.042191
 **** Fit      -0.039900
 **** Fit      -0.037436
 **** Fit      -0.040032
 **** Fit      -0.042086
 **** Fit      -0.043342
 **** Fit      -0.043629
 **** Fit      -0.042913
 **** Fit      -0.041307
 **** Fit      -0.039024
 **** Fit      -0.035545
 **** Fit      -0.037960
 **** Fit      -0.039877
 **** Fit      -0.041058
 **** Fit      -0.041342
 **** Fit      -0.040697
 **** Fit      -0.039221
 **** Fit      -0.037107
 **** Fit      -0.030440
 **** Fit      -0.032705
 **** Fit      -0.034734
 **** Fit      -0.036331
 **** Fit      -0.037316
 **** Fit      -0.037572
 **** Fit      -0.037074
 **** Fit      -0.035885
 **** Fit      -0.034136
 **** Fit      -0.031996
 **** Fit      -0.029638
 **** Fit      -0.025572
 **** Fit      -0.027378
 **** Fit      -0.029057
 **** Fit      -0.030487
 **** Fit      -0.031558
 **** Fit      -0.032200
 **** Fit      -0.032390
 **** Fit      -0.032123
 **** Fit      -0.031397
 **** Fit      -0.030226
 **** Fit      -0.028671
 **** Fit      -0.026838
 **** Fit      -0.024857
 **** Fit      -0.022741
 **** Fit      -0.023916
 **** Fit      -0.024860
 **** Fit      -0.025500
 **** Fit      -0.025834
 **** Fit      -0.025962
 **** Fit      -0.026027
 **** Fit      -0.026079
 **** Fit      -0.026005
 **** Fit      -0.025623
 **** Fit      -0.024830
 **** Fit      -0.023653
 **** Fit      -0.022204
 **** Fit      -0.019047
 **** Fit      -0.019824
 **** Fit      -0.020334
 **** Fit      -0.020471
 **** Fit      -0.020186
 **** Fit      -0.019591
 **** Fit      -0.019018
 **** Fit      -0.018881
 **** Fit      -0.019336
 **** Fit      -0.020101
 **** Fit      -0.020691
 **** Fit      -0.020783
 **** Fit      -0.020324
 **** Fit      -0.019437
 **** Fit      -0.018293
 **** Fit      -0.016735
 **** Fit      -0.017032
 **** Fit      -0.016937
 **** Fit      -0.016309
 **** Fit      -0.015090
 **** Fit      -0.013473
 **** Fit      -0.012057
 **** Fit      -0.011639
 **** Fit      -0.012552
 **** Fit      -0.014274
 **** Fit      -0.015912
 **** Fit      -0.016893
 **** Fit      -0.017114
 **** Fit      -0.016743
 **** Fit      -0.016001
 **** Fit      -0.014611
 **** Fit      -0.014544
 **** Fit      -0.013998
 **** Fit      -0.012800
 **** Fit      -0.010850
 **** Fit      -0.008374
 **** Fit      -0.006191
 **** Fit      -0.005488
 **** Fit      -0.006798
 **** Fit      -0.009352
 **** Fit      -0.011853
 **** Fit      -0.013523
 **** Fit      -0.014258
 **** Fit      -0.014279
 **** Fit      -0.013858
 **** Fit      -0.012686
 **** Fit      -0.012741
 **** Fit      -0.012459
 **** Fit      -0.011687
 **** Fit      -0.010242
 **** Fit      -0.008006
 **** Fit      -0.005193
 **** Fit      -0.002691
 **** Fit      -0.003303
 **** Fit      -0.006172
 **** Fit      -0.008995
 **** Fit      -0.010936
 **** Fit      -0.011905
 **** Fit      -0.012146
 **** Fit      -0.011938
 **** Fit      -0.011490
 **** Fit      -0.011133
 **** Fit      -0.010780
 **** Fit      -0.010004
 **** Fit      -0.008659
 **** Fit      -0.006654
 **** Fit      -0.004179
 **** Fit      -0.001999
 **** Fit      -0.002503
 **** Fit      -0.004973
 **** Fit      -0.007434
 **** Fit      -0.009164
 **** Fit      -0.010076
 **** Fit      -0.010368
 **** Fit      -0.010272
 **** Fit      -0.009964
 **** Fit      -0.009746
 **** Fit      -0.009424
 **** Fit      -0.008795
 **** Fit      -0.007772
 **** Fit      -0.006318
 **** Fit      -0.004593
 **** Fit      -0.003118
 **** Fit      -0.002625
 **** Fit      -0.003438
 **** Fit      -0.005088
 **** Fit      -0.006775
 **** Fit      -0.008002
 **** Fit      -0.008675
 **** Fit      -0.008907
 **** Fit      -0.008850
 **** Fit      -0.008517
 **** Fit      -0.008272
 **** Fit      -0.007834
 **** Fit      -0.007175
 **** Fit      -0.006295
 **** Fit      -0.005308
 **** Fit      -0.004496
 **** Fit      -0.004221
 **** Fit      -0.004635
 **** Fit      -0.005509
 **** Fit      -0.006442
 **** Fit      -0.007152
 **** Fit      -0.007555
 **** Fit      -0.007691
 **** Fit      -0.007639
 **** Fit      -0.007393
 **** Fit      -0.007218
 **** Fit      -0.006941
 **** Fit      -0.006561
 **** Fit      -0.006095
 **** Fit      -0.005607
 **** Fit      -0.005220
 **** Fit      -0.005079
 **** Fit      -0.005241
 **** Fit      -0.005619
 **** Fit      -0.006049
 **** Fit      -0.006394
 **** Fit      -0.006594
 **** Fit      -0.006652
 **** Fit      -0.006599
 **** Fit      -0.006209
 **** Fit      -0.006029
 **** Fit      -0.005811
 **** Fit      -0.005573
 **** Fit      -0.005346
 **** Fit      -0.005174
 **** Fit      -0.005104
 **** Fit      -0.005155
 **** Fit      -0.005300
 **** Fit      -0.005478
 **** Fit      -0.005630
 **** Fit      -0.005719
 **** Fit      -0.005736
 **** Fit      -0.005096
 **** Fit      -0.004949
 **** Fit      -0.004808
 **** Fit      -0.004689
 **** Fit      -0.004608
 **** Fit      -0.004579
 **** Fit      -0.004605
 **** Fit      -0.004676
 **** Fit      -0.004767
 **** Fit      -0.004849
 **** Fit      -0.004901
 **** Fit      -0.004057
 **** Fit      -0.003944
 **** Fit      -0.003859
 **** Fit      -0.003813
 **** Fit      -0.003810
 **** Fit      -0.003849
 **** Fit      -0.003919
 **** Fit      -0.004002
 **** Fit      -0.004081
 **** Fit      -0.003216
 **** Fit      -0.003107
 **** Fit      -0.003031
 **** Fit      -0.002998
 **** Fit      -0.003013
 **** Fit      -0.003072
 **** Fit      -0.003161
 **** Fit      -0.003263
 **** Fit      -0.002370
 **** Fit      -0.002299
 **** Fit      -0.002274
 **** Fit      -0.002301
 **** Fit      -0.002374
 **** Fit      -0.002479
 **** Fit      -0.002600
 **** Fit      -0.001680
 **** Fit      -0.001714
 **** Fit      -0.001793
 **** Fit      -0.034641
 **** Fit      -0.034829
 **** Fit      -0.034402
 **** Fit      -0.030039
 **** Fit      -0.031119
 **** Fit      -0.031773
 **** Fit      -0.031941
 **** Fit      -0.031606
 **** Fit      -0.030799
 **** Fit      -0.029587
 **** Fit      -0.028063
 **** Fit      -0.024560
 **** Fit      -0.025798
 **** Fit      -0.026825
 **** Fit      -0.027581
 **** Fit      -0.028029
 **** Fit      -0.028155
 **** Fit      -0.027956
 **** Fit      -0.027427
 **** Fit      -0.026574
 **** Fit      -0.025431
 **** Fit      -0.024060
 **** Fit      -0.020873
 **** Fit      -0.021818
 **** Fit      -0.022582
 **** Fit      -0.023127
 **** Fit      -0.023459
 **** Fit      -0.023625
 **** Fit      -0.023687
 **** Fit      -0.023660
 **** Fit      -0.023493
 **** Fit      -0.023101
 **** Fit      -0.022432
 **** Fit      -0.021495
 **** Fit      -0.020353
 **** Fit      -0.018476
 **** Fit      -0.018973
 **** Fit      -0.019230
 **** Fit      -0.019241
 **** Fit      -0.019080
 **** Fit      -0.018904
 **** Fit      -0.018876
 **** Fit      -0.019049
 **** Fit      -0.019303
 **** Fit      -0.019435
 **** Fit      -0.019287
 **** Fit      -0.018814
 **** Fit      -0.018063
 **** Fit      -0.015808
 **** Fit      -0.016150
 **** Fit      -0.016239
 **** Fit      -0.016026
 **** Fit      -0.015526
 **** Fit      -0.014874
 **** Fit      -0.014338
 **** Fit      -0.014206
 **** Fit      -0.014576
 **** Fit      -0.015254
 **** Fit      -0.015899
 **** Fit      -0.016247
 **** Fit      -0.016204
 **** Fit      -0.015812
 **** Fit      -0.015172
 **** Fit      -0.013955
 **** Fit      -0.014025
 **** Fit      -0.013803
 **** Fit      -0.013237
 **** Fit      -0.012350
 **** Fit      -0.011317
 **** Fit      -0.010492
 **** Fit      -0.010269
 **** Fit      -0.010787
 **** Fit      -0.011791
 **** Fit      -0.012827
 **** Fit      -0.013547
 **** Fit      -0.013830
 **** Fit      -0.013719
 **** Fit      -0.013325
 **** Fit      -0.012287
 **** Fit      -0.012182
 **** Fit      -0.011782
 **** Fit      -0.011040
 **** Fit      -0.009981
 **** Fit      -0.008789
 **** Fit      -0.007845
 **** Fit      -0.007578
 **** Fit      -0.008145
 **** Fit      -0.009270
 **** Fit      -0.010461
 **** Fit      -0.011347
 **** Fit      -0.011801
 **** Fit      -0.011864
 **** Fit      -0.011642
 **** Fit      -0.010820
 **** Fit      -0.010635
 **** Fit      -0.010192
 **** Fit      -0.009455
 **** Fit      -0.008455
 **** Fit      -0.007359
 **** Fit      -0.006500
 **** Fit      -0.006254
 **** Fit      -0.006755
 **** Fit      -0.007761
 **** Fit      -0.008844
 **** Fit      -0.009677
 **** Fit      -0.010144
 **** Fit      -0.010274
 **** Fit      -0.010153
 **** Fit      -0.009534
 **** Fit      -0.009342
 **** Fit      -0.008952
 **** Fit      -0.008347
 **** Fit      -0.007563
 **** Fit      -0.006729
 **** Fit      -0.006089
 **** Fit      -0.005904
 **** Fit      -0.006263
 **** Fit      -0.006996
 **** Fit      -0.007800
 **** Fit      -0.008437
 **** Fit      -0.008809
 **** Fit      -0.008930
 **** Fit      -0.008856
 **** Fit      -0.008229
 **** Fit      -0.007934
 **** Fit      -0.007505
 **** Fit      -0.006975
 **** Fit      -0.006434
 **** Fit      -0.006029
 **** Fit      -0.005907
 **** Fit      -0.006118
 **** Fit      -0.006561
 **** Fit      -0.007061
 **** Fit      -0.007467
 **** Fit      -0.007710
 **** Fit      -0.007788
 **** Fit      -0.007227
 **** Fit      -0.007023
 **** Fit      -0.006747
 **** Fit      -0.006426
 **** Fit      -0.006113
 **** Fit      -0.005884
 **** Fit      -0.005810
 **** Fit      -0.005912
 **** Fit      -0.006141
 **** Fit      -0.006407
 **** Fit      -0.006630
 **** Fit      -0.006764
 **** Fit      -0.006799
 **** Fit      -0.006151
 **** Fit      -0.005977
 **** Fit      -0.005790
 **** Fit      -0.005618
 **** Fit      -0.005497
 **** Fit      -0.005454
 **** Fit      -0.005497
 **** Fit      -0.005604
 **** Fit      -0.005734
 **** Fit      -0.005847
 **** Fit      -0.005913
 **** Fit      -0.005182
 **** Fit      -0.005064
 **** Fit      -0.004965
 **** Fit      -0.004899
 **** Fit      -0.004877
 **** Fit      -0.004900
 **** Fit      -0.004957
 **** Fit      -0.005028
 **** Fit      -0.005092
 **** Fit      -0.004233
 **** Fit      -0.004194
 **** Fit      -0.004188
 **** Fit      -0.004212
 **** Fit      -0.004259
 **** Fit      -0.003486
 **** Fit      -0.027550
 **** Fit      -0.027662
 **** Fit      -0.027423
 **** Fit      -0.023866
 **** Fit      -0.024428
 **** Fit      -0.024757
 **** Fit      -0.024845
 **** Fit      -0.024686
 **** Fit      -0.024278
 **** Fit      -0.023626
 **** Fit      -0.020603
 **** Fit      -0.021076
 **** Fit      -0.021387
 **** Fit      -0.021556
 **** Fit      -0.021608
 **** Fit      -0.021546
 **** Fit      -0.021345
 **** Fit      -0.020969
 **** Fit      -0.020393
 **** Fit      -0.017696
 **** Fit      -0.018009
 **** Fit      -0.018163
 **** Fit      -0.018199
 **** Fit      -0.018187
 **** Fit      -0.018194
 **** Fit      -0.018236
 **** Fit      -0.018262
 **** Fit      -0.018182
 **** Fit      -0.017923
 **** Fit      -0.017458
 **** Fit      -0.015286
 **** Fit      -0.015484
 **** Fit      -0.015500
 **** Fit      -0.015358
 **** Fit      -0.015132
 **** Fit      -0.014945
 **** Fit      -0.014905
 **** Fit      -0.015044
 **** Fit      -0.015282
 **** Fit      -0.015479
 **** Fit      -0.015513
 **** Fit      -0.015326
 **** Fit      -0.014927
 **** Fit      -0.013479
 **** Fit      -0.013459
 **** Fit      -0.013247
 **** Fit      -0.012878
 **** Fit      -0.012454
 **** Fit      -0.012131
 **** Fit      -0.012052
 **** Fit      -0.012260
 **** Fit      -0.012656
 **** Fit      -0.013061
 **** Fit      -0.013317
 **** Fit      -0.013347
 **** Fit      -0.013150
 **** Fit      -0.011864
 **** Fit      -0.011705
 **** Fit      -0.011361
 **** Fit      -0.010874
 **** Fit      -0.010353
 **** Fit      -0.009964
 **** Fit      -0.009865
 **** Fit      -0.010099
 **** Fit      -0.010563
 **** Fit      -0.011066
 **** Fit      -0.011440
 **** Fit      -0.011600
 **** Fit      -0.011539
 **** Fit      -0.010459
 **** Fit      -0.010242
 **** Fit      -0.009865
 **** Fit      -0.009372
 **** Fit      -0.008863
 **** Fit      -0.008489
 **** Fit      -0.008390
 **** Fit      -0.008605
 **** Fit      -0.009041
 **** Fit      -0.009526
 **** Fit      -0.009910
 **** Fit      -0.010111
 **** Fit      -0.010121
 **** Fit      -0.009248
 **** Fit      -0.009034
 **** Fit      -0.008698
 **** Fit      -0.008280
 **** Fit      -0.007861
 **** Fit      -0.007558
 **** Fit      -0.007474
 **** Fit      -0.007638
 **** Fit      -0.007979
 **** Fit      -0.008367
 **** Fit      -0.008683
 **** Fit      -0.008862
 **** Fit      -0.008892
 **** Fit      -0.008010
 **** Fit      -0.007751
 **** Fit      -0.007441
 **** Fit      -0.007140
 **** Fit      -0.006924
 **** Fit      -0.006861
 **** Fit      -0.006967
 **** Fit      -0.007194
 **** Fit      -0.007457
 **** Fit      -0.007676
 **** Fit      -0.007804
 **** Fit      -0.007102
 **** Fit      -0.006919
 **** Fit      -0.006710
 **** Fit      -0.006514
 **** Fit      -0.006375
 **** Fit      -0.006330
 **** Fit      -0.006388
 **** Fit      -0.006519
 **** Fit      -0.006676
 **** Fit      -0.006808
 **** Fit      -0.006884
 **** Fit      -0.006136
 **** Fit      -0.006001
 **** Fit      -0.005879
 **** Fit      -0.005794
 **** Fit      -0.005764
 **** Fit      -0.005792
 **** Fit      -0.005862
 **** Fit      -0.005948
 **** Fit      -0.006022
 **** Fit      -0.005210
 **** Fit      -0.005158
 **** Fit      -0.005140
 **** Fit      -0.005155
 **** Fit      -0.005196
 **** Fit      -0.022170
 **** Fit      -0.019277
 **** Fit      -0.019557
 **** Fit      -0.019713
 **** Fit      -0.019753
 **** Fit      -0.019678
 **** Fit      -0.019475
 **** Fit      -0.019130
 **** Fit      -0.016827
 **** Fit      -0.017038
 **** Fit      -0.017155
 **** Fit      -0.017208
 **** Fit      -0.017224
 **** Fit      -0.017207
 **** Fit      -0.017134
 **** Fit      -0.016966
 **** Fit      -0.016669
 **** Fit      -0.014827
 **** Fit      -0.014857
 **** Fit      -0.014823
 **** Fit      -0.014779
 **** Fit      -0.014770
 **** Fit      -0.014806
 **** Fit      -0.014851
 **** Fit      -0.014845
 **** Fit      -0.014730
 **** Fit      -0.013003
 **** Fit      -0.012982
 **** Fit      -0.012868
 **** Fit      -0.012717
 **** Fit      -0.012598
 **** Fit      -0.012568
 **** Fit      -0.012642
 **** Fit      -0.012776
 **** Fit      -0.012894
 **** Fit      -0.012923
 **** Fit      -0.012819
 **** Fit      -0.011485
 **** Fit      -0.011364
 **** Fit      -0.011164
 **** Fit      -0.010945
 **** Fit      -0.010783
 **** Fit      -0.010741
 **** Fit      -0.010832
 **** Fit      -0.011013
 **** Fit      -0.011201
 **** Fit      -0.011318
 **** Fit      -0.011314
 **** Fit      -0.010164
 **** Fit      -0.009998
 **** Fit      -0.009769
 **** Fit      -0.009535
 **** Fit      -0.009366
 **** Fit      -0.009319
 **** Fit      -0.009408
 **** Fit      -0.009592
 **** Fit      -0.009794
 **** Fit      -0.009942
 **** Fit      -0.009988
 **** Fit      -0.008859
 **** Fit      -0.008647
 **** Fit      -0.008438
 **** Fit      -0.008289
 **** Fit      -0.008245
 **** Fit      -0.008316
 **** Fit      -0.008470
 **** Fit      -0.008645
 **** Fit      -0.008780
 **** Fit      -0.007894
 **** Fit      -0.007723
 **** Fit      -0.007558
 **** Fit      -0.007442
 **** Fit      -0.007404
 **** Fit      -0.007453
 **** Fit      -0.007562
 **** Fit      -0.007690
 **** Fit      -0.007792
 **** Fit      -0.006918
 **** Fit      -0.006800
 **** Fit      -0.006716
 **** Fit      -0.006686
 **** Fit      -0.006714
 **** Fit      -0.006782
 **** Fit      -0.006864
 **** Fit      -0.006038
 **** Fit      -0.006016
 **** Fit      -0.006030
 **** Fit      -0.016161
 **** Fit      -0.014240
 **** Fit      -0.014256
 **** Fit      -0.014257
 **** Fit      -0.014246
 **** Fit      -0.014206
 **** Fit      -0.012539
 **** Fit      -0.012508
 **** Fit      -0.012497
 **** Fit      -0.012509
 **** Fit      -0.012525
 **** Fit      -0.012510
 **** Fit      -0.011110
 **** Fit      -0.011035
 **** Fit      -0.010975
 **** Fit      -0.010954
 **** Fit      -0.010980
 **** Fit      -0.011030
 **** Fit      -0.011068
 **** Fit      -0.009852
 **** Fit      -0.009755
 **** Fit      -0.009681
 **** Fit      -0.009657
 **** Fit      -0.009685
 **** Fit      -0.009748
 **** Fit      -0.009809
 **** Fit      -0.008681
 **** Fit      -0.008609
 **** Fit      -0.008584
 **** Fit      -0.008608
 **** Fit      -0.008666
 **** Fit      -0.007709
 **** Fit      -0.007685
 **** Fit      -0.007701
 -----------------------------------------------------------------
 Leave Link  602 at Tue Dec  7 18:07:55 2021, MaxMem=   104857600 cpu:               5.6 elap:               5.6
 (Enter /mnt/gpfs3_amd/share/apps/amd/gaussian/g16-A.03/g16/l9999.exe)

 Test job not archived.
 1\1\GINC-ROME023\SP\RB3LYP\6-311++G(d,p)\C9H12N2O2\MNG228\07-Dec-2021\
 0\\#P B3LYP/6-311++G(d,p) Geom=Allcheck SCF=Tight EmpiricalDispersion=
 GD3BJ Pop=CHELPG SP IOp(6/33=2)\\MAA1-VI1 geo opt\\0,1\C,0,16.52192437
 56,11.4793341963,23.2026276809\C,0,18.0208524945,11.4378162325,23.2952
 940277\C,0,18.7476135112,12.3746941465,23.9094261369\C,0,18.6599113094
 ,10.1840206384,22.7516644093\O,0,18.0685550426,9.1291342318,22.7715840
 518\O,0,19.9061020924,10.2711346237,22.2742834437\H,0,16.196264541,11.
 4495924987,22.1583132977\H,0,16.1249465763,12.3820185086,23.6698699587
 \H,0,16.0921297459,10.6005782943,23.6880654617\H,0,18.273011628,13.234
 0861252,24.3712801329\H,0,19.8243903378,12.304833687,23.9957259433\H,0
 ,20.2137056603,11.2021224643,22.1104846909\C,0,24.1700646929,15.207724
 2353,19.2233999846\C,0,23.7841232814,14.035889654,19.7176116484\N,0,22
 .5836114279,13.7934111102,20.4117609141\C,0,21.5619178681,14.681449287
 1,20.7186517137\C,0,20.6264848789,13.954181716,21.3979285272\N,0,21.04
 49307473,12.6435691439,21.5198670964\C,0,22.211268924,12.5768632493,20
 .9219755275\H,0,25.1153755368,15.2809745568,18.7044697559\H,0,23.57911
 45976,16.1097152575,19.3127150022\H,0,24.3931235111,13.1460492981,19.6
 159648506\H,0,21.5941583563,15.7166209831,20.4309310745\H,0,19.6841145
 506,14.2804518553,21.8058923517\H,0,22.8243043119,11.6947340061,20.822
 2123174\\Version=AM64L-G16RevA.03\State=1-A\HF=-610.3233895\RMSD=5.760
 e-09\Dipole=1.709843,2.8921121,-0.9368051\Quadrupole=8.4369558,-9.7057
 062,1.2687504,-5.4656959,-5.751456,0.8421265\PG=C01 [X(C9H12N2O2)]\\@


 Once you get people laughing, they're
 listening and you can tell them almost anything.
                                 -- Herb Gardner
 Job cpu time:       0 days  0 hours 20 minutes 33.3 seconds.
 Elapsed time:       0 days  0 hours 20 minutes 35.8 seconds.
 File lengths (MBytes):  RWF=    192 Int=      0 D2E=      0 Chk=     24 Scr=     16
 Normal termination of Gaussian 16 at Tue Dec  7 18:07:55 2021.
