 Entering Gaussian System, Link 0=g16
 Initial command:
 /opt/ohpc/pub/libs/gaussian/g16-A.03/haswell/g16/l1.exe "g16_scratch/Gau-212703.inp" -scrdir="g16_scratch/"
 Entering Link 1 = /opt/ohpc/pub/libs/gaussian/g16-A.03/haswell/g16/l1.exe PID=    212704.
  
 Copyright (c) 1988,1990,1992,1993,1995,1998,2003,2009,2016,
            Gaussian, Inc.  All Rights Reserved.
  
 This is part of the Gaussian(R) 16 program.  It is based on
 the Gaussian(R) 09 system (copyright 2009, Gaussian, Inc.),
 the Gaussian(R) 03 system (copyright 2003, Gaussian, Inc.),
 the Gaussian(R) 98 system (copyright 1998, Gaussian, Inc.),
 the Gaussian(R) 94 system (copyright 1995, Gaussian, Inc.),
 the Gaussian 92(TM) system (copyright 1992, Gaussian, Inc.),
 the Gaussian 90(TM) system (copyright 1990, Gaussian, Inc.),
 the Gaussian 88(TM) system (copyright 1988, Gaussian, Inc.),
 the Gaussian 86(TM) system (copyright 1986, Carnegie Mellon
 University), and the Gaussian 82(TM) system (copyright 1983,
 Carnegie Mellon University). Gaussian is a federally registered
 trademark of Gaussian, Inc.
  
 This software contains proprietary and confidential information,
 including trade secrets, belonging to Gaussian, Inc.
  
 This software is provided under written license and may be
 used, copied, transmitted, or stored only in accord with that
 written license.
  
 The following legend is applicable only to US Government
 contracts under FAR:
  
                    RESTRICTED RIGHTS LEGEND
  
 Use, reproduction and disclosure by the US Government is
 subject to restrictions as set forth in subparagraphs (a)
 and (c) of the Commercial Computer Software - Restricted
 Rights clause in FAR 52.227-19.
  
 Gaussian, Inc.
 340 Quinnipiac St., Bldg. 40, Wallingford CT 06492
  
  
 ---------------------------------------------------------------
 Warning -- This program may not be used in any manner that
 competes with the business of Gaussian, Inc. or will provide
 assistance to any competitor of Gaussian, Inc.  The licensee
 of this program is prohibited from giving any competitor of
 Gaussian, Inc. access to this program.  By using this program,
 the user acknowledges that Gaussian, Inc. is engaged in the
 business of creating and licensing software in the field of
 computational chemistry and represents and warrants to the
 licensee that it is not a competitor of Gaussian, Inc. and that
 it will not use this program in any manner prohibited above.
 ---------------------------------------------------------------
  

 Cite this work as:
 Gaussian 16, Revision A.03,
 M. J. Frisch, G. W. Trucks, H. B. Schlegel, G. E. Scuseria, 
 M. A. Robb, J. R. Cheeseman, G. Scalmani, V. Barone, 
 G. A. Petersson, H. Nakatsuji, X. Li, M. Caricato, A. V. Marenich, 
 J. Bloino, B. G. Janesko, R. Gomperts, B. Mennucci, H. P. Hratchian, 
 J. V. Ortiz, A. F. Izmaylov, J. L. Sonnenberg, D. Williams-Young, 
 F. Ding, F. Lipparini, F. Egidi, J. Goings, B. Peng, A. Petrone, 
 T. Henderson, D. Ranasinghe, V. G. Zakrzewski, J. Gao, N. Rega, 
 G. Zheng, W. Liang, M. Hada, M. Ehara, K. Toyota, R. Fukuda, 
 J. Hasegawa, M. Ishida, T. Nakajima, Y. Honda, O. Kitao, H. Nakai, 
 T. Vreven, K. Throssell, J. A. Montgomery, Jr., J. E. Peralta, 
 F. Ogliaro, M. J. Bearpark, J. J. Heyd, E. N. Brothers, K. N. Kudin, 
 V. N. Staroverov, T. A. Keith, R. Kobayashi, J. Normand, 
 K. Raghavachari, A. P. Rendell, J. C. Burant, S. S. Iyengar, 
 J. Tomasi, M. Cossi, J. M. Millam, M. Klene, C. Adamo, R. Cammi, 
 J. W. Ochterski, R. L. Martin, K. Morokuma, O. Farkas, 
 J. B. Foresman, and D. J. Fox, Gaussian, Inc., Wallingford CT, 2016.
 
 ******************************************
 Gaussian 16:  ES64L-G16RevA.03 25-Dec-2016
                21-Apr-2022 
 ******************************************
 %Mem=192GB
 %NProcShared=48
 Will use up to   48 processors via shared memory.
 %Chk=MAA1-VI1-3.chk
 ---------------------------------------------------------------------
 #n B3LYP/6-311++G(d,p) Opt freq EmpiricalDispersion=GD3BJ IOp(6/33=2)
 ---------------------------------------------------------------------
 1/18=20,19=15,26=3,38=1/1,3;
 2/9=110,12=2,17=6,18=5,40=1/2;
 3/5=4,6=6,7=1111,11=2,25=1,30=1,71=1,74=-5,124=41/1,2,3;
 4//1;
 5/5=2,38=5/2;
 6/7=2,8=2,9=2,10=2,28=1,33=2/1;
 7//1,2,3,16;
 1/18=20,19=15,26=3/3(2);
 2/9=110/2;
 99//99;
 2/9=110/2;
 3/5=4,6=6,7=1111,11=2,25=1,30=1,71=1,74=-5,124=41/1,2,3;
 4/5=5,16=3,69=1/1;
 5/5=2,38=5/2;
 7//1,2,3,16;
 1/18=20,19=15,26=3/3(-5);
 2/9=110/2;
 6/7=2,8=2,9=2,10=2,19=2,28=1,33=2/1;
 99/9=1/99;
 ----------------
 MAA1-VI1 geo opt
 ----------------
 Symbolic Z-matrix:
 Charge =  0 Multiplicity = 1
 C                     11.437    12.502    13.431 
 C                     12.424    12.343    12.248 
 C                     12.38     11.282    11.436 
 C                     13.511    13.289    11.955 
 O                     13.924    13.535    10.846 
 O                     14.132    13.921    12.994 
 H                     11.732    11.998    14.351 
 H                     10.461    12.135    13.111 
 H                     11.457    13.575    13.625 
 H                     11.64     10.5      11.533 
 H                     13.044    11.185    10.59 
 H                     13.858    13.735    13.879 
 C                     15.617    15.42     19.486 
 C                     14.428    15.2      18.973 
 N                     14.256    14.359    17.874 
 C                     14.981    13.201    17.668 
 C                     14.471    12.639    16.511 
 N                     13.471    13.433    15.968 
 C                     13.396    14.434    16.862 
 H                     15.673    16.21     20.22 
 H                     16.573    15.034    19.165 
 H                     13.566    15.62     19.472 
 H                     15.708    12.84     18.381 
 H                     14.725    11.724    15.996 
 H                     12.72     15.276    16.822 
 
 Add virtual bond connecting atoms N18        and H12        Dist= 4.06D+00.

 GradGradGradGradGradGradGradGradGradGradGradGradGradGradGradGradGradGrad
 Berny optimization.
 Initialization pass.
                           ----------------------------
                           !    Initial Parameters    !
                           ! (Angstroms and Degrees)  !
 --------------------------                            --------------------------
 ! Name  Definition              Value          Derivative Info.                !
 --------------------------------------------------------------------------------
 ! R1    R(1,2)                  1.5489         estimate D2E/DX2                !
 ! R2    R(1,7)                  1.0897         estimate D2E/DX2                !
 ! R3    R(1,8)                  1.0907         estimate D2E/DX2                !
 ! R4    R(1,9)                  1.0906         estimate D2E/DX2                !
 ! R5    R(2,3)                  1.3368         estimate D2E/DX2                !
 ! R6    R(2,4)                  1.4705         estimate D2E/DX2                !
 ! R7    R(3,10)                 1.081          estimate D2E/DX2                !
 ! R8    R(3,11)                 1.0798         estimate D2E/DX2                !
 ! R9    R(4,5)                  1.2087         estimate D2E/DX2                !
 ! R10   R(4,6)                  1.3655         estimate D2E/DX2                !
 ! R11   R(6,12)                 0.9449         estimate D2E/DX2                !
 ! R12   R(12,18)                2.1459         estimate D2E/DX2                !
 ! R13   R(13,14)                1.3135         estimate D2E/DX2                !
 ! R14   R(13,20)                1.0798         estimate D2E/DX2                !
 ! R15   R(13,21)                1.0798         estimate D2E/DX2                !
 ! R16   R(14,15)                1.3945         estimate D2E/DX2                !
 ! R17   R(14,22)                1.0809         estimate D2E/DX2                !
 ! R18   R(15,16)                1.3817         estimate D2E/DX2                !
 ! R19   R(15,19)                1.3302         estimate D2E/DX2                !
 ! R20   R(16,17)                1.3837         estimate D2E/DX2                !
 ! R21   R(16,23)                1.0804         estimate D2E/DX2                !
 ! R22   R(17,18)                1.3875         estimate D2E/DX2                !
 ! R23   R(17,24)                1.0803         estimate D2E/DX2                !
 ! R24   R(18,19)                1.3442         estimate D2E/DX2                !
 ! R25   R(19,25)                1.0805         estimate D2E/DX2                !
 ! A1    A(2,1,7)              115.1414         estimate D2E/DX2                !
 ! A2    A(2,1,8)              108.1555         estimate D2E/DX2                !
 ! A3    A(2,1,9)              103.0137         estimate D2E/DX2                !
 ! A4    A(7,1,8)              109.5309         estimate D2E/DX2                !
 ! A5    A(7,1,9)              107.4521         estimate D2E/DX2                !
 ! A6    A(8,1,9)              113.5564         estimate D2E/DX2                !
 ! A7    A(1,2,3)              121.6313         estimate D2E/DX2                !
 ! A8    A(1,2,4)              123.8628         estimate D2E/DX2                !
 ! A9    A(3,2,4)              114.4501         estimate D2E/DX2                !
 ! A10   A(2,3,10)             122.8331         estimate D2E/DX2                !
 ! A11   A(2,3,11)             121.7997         estimate D2E/DX2                !
 ! A12   A(10,3,11)            115.2307         estimate D2E/DX2                !
 ! A13   A(2,4,5)              124.4946         estimate D2E/DX2                !
 ! A14   A(2,4,6)              118.837          estimate D2E/DX2                !
 ! A15   A(5,4,6)              116.65           estimate D2E/DX2                !
 ! A16   A(4,6,12)             119.3182         estimate D2E/DX2                !
 ! A17   A(14,13,20)           115.7831         estimate D2E/DX2                !
 ! A18   A(14,13,21)           128.7153         estimate D2E/DX2                !
 ! A19   A(20,13,21)           114.6888         estimate D2E/DX2                !
 ! A20   A(13,14,15)           121.3628         estimate D2E/DX2                !
 ! A21   A(13,14,22)           118.4563         estimate D2E/DX2                !
 ! A22   A(15,14,22)           119.9851         estimate D2E/DX2                !
 ! A23   A(14,15,16)           123.9333         estimate D2E/DX2                !
 ! A24   A(14,15,19)           130.1896         estimate D2E/DX2                !
 ! A25   A(16,15,19)           105.8474         estimate D2E/DX2                !
 ! A26   A(15,16,17)           105.7639         estimate D2E/DX2                !
 ! A27   A(15,16,23)           122.3268         estimate D2E/DX2                !
 ! A28   A(17,16,23)           131.6164         estimate D2E/DX2                !
 ! A29   A(16,17,18)           111.1273         estimate D2E/DX2                !
 ! A30   A(16,17,24)           130.9951         estimate D2E/DX2                !
 ! A31   A(18,17,24)           117.8775         estimate D2E/DX2                !
 ! A32   A(12,18,17)           109.3611         estimate D2E/DX2                !
 ! A33   A(12,18,19)           123.5529         estimate D2E/DX2                !
 ! A34   A(17,18,19)           101.8923         estimate D2E/DX2                !
 ! A35   A(15,19,18)           115.3365         estimate D2E/DX2                !
 ! A36   A(15,19,25)           118.4625         estimate D2E/DX2                !
 ! A37   A(18,19,25)           126.1982         estimate D2E/DX2                !
 ! A38   L(6,12,18,1,-1)       187.3708         estimate D2E/DX2                !
 ! A39   L(6,12,18,1,-2)       180.056          estimate D2E/DX2                !
 ! D1    D(7,1,2,3)             84.9263         estimate D2E/DX2                !
 ! D2    D(7,1,2,4)            -92.205          estimate D2E/DX2                !
 ! D3    D(8,1,2,3)            -37.9312         estimate D2E/DX2                !
 ! D4    D(8,1,2,4)            144.9375         estimate D2E/DX2                !
 ! D5    D(9,1,2,3)           -158.4265         estimate D2E/DX2                !
 ! D6    D(9,1,2,4)             24.4422         estimate D2E/DX2                !
 ! D7    D(1,2,3,10)             2.2759         estimate D2E/DX2                !
 ! D8    D(1,2,3,11)           177.8262         estimate D2E/DX2                !
 ! D9    D(4,2,3,10)           179.6593         estimate D2E/DX2                !
 ! D10   D(4,2,3,11)            -4.7904         estimate D2E/DX2                !
 ! D11   D(1,2,4,5)           -148.2676         estimate D2E/DX2                !
 ! D12   D(1,2,4,6)             33.3497         estimate D2E/DX2                !
 ! D13   D(3,2,4,5)             34.4154         estimate D2E/DX2                !
 ! D14   D(3,2,4,6)           -143.9672         estimate D2E/DX2                !
 ! D15   D(2,4,6,12)             0.4718         estimate D2E/DX2                !
 ! D16   D(5,4,6,12)          -178.0368         estimate D2E/DX2                !
 ! D17   D(4,6,18,17)          103.5822         estimate D2E/DX2                !
 ! D18   D(4,6,18,19)         -138.6461         estimate D2E/DX2                !
 ! D19   D(20,13,14,15)        169.8871         estimate D2E/DX2                !
 ! D20   D(20,13,14,22)        -15.2005         estimate D2E/DX2                !
 ! D21   D(21,13,14,15)          0.8615         estimate D2E/DX2                !
 ! D22   D(21,13,14,22)        175.7739         estimate D2E/DX2                !
 ! D23   D(13,14,15,16)         36.8504         estimate D2E/DX2                !
 ! D24   D(13,14,15,19)       -145.4237         estimate D2E/DX2                !
 ! D25   D(22,14,15,16)       -137.9852         estimate D2E/DX2                !
 ! D26   D(22,14,15,19)         39.7407         estimate D2E/DX2                !
 ! D27   D(14,15,16,17)        177.5098         estimate D2E/DX2                !
 ! D28   D(14,15,16,23)          3.0602         estimate D2E/DX2                !
 ! D29   D(19,15,16,17)         -0.6845         estimate D2E/DX2                !
 ! D30   D(19,15,16,23)       -175.1341         estimate D2E/DX2                !
 ! D31   D(14,15,19,18)       -178.5452         estimate D2E/DX2                !
 ! D32   D(14,15,19,25)          2.028          estimate D2E/DX2                !
 ! D33   D(16,15,19,18)         -0.5064         estimate D2E/DX2                !
 ! D34   D(16,15,19,25)       -179.9332         estimate D2E/DX2                !
 ! D35   D(15,16,17,18)          1.6205         estimate D2E/DX2                !
 ! D36   D(15,16,17,24)       -178.5193         estimate D2E/DX2                !
 ! D37   D(23,16,17,18)        175.3441         estimate D2E/DX2                !
 ! D38   D(23,16,17,24)         -4.7956         estimate D2E/DX2                !
 ! D39   D(16,17,18,12)        130.4434         estimate D2E/DX2                !
 ! D40   D(16,17,18,19)         -1.8314         estimate D2E/DX2                !
 ! D41   D(24,17,18,12)        -49.4373         estimate D2E/DX2                !
 ! D42   D(24,17,18,19)        178.2879         estimate D2E/DX2                !
 ! D43   D(12,18,19,15)       -121.6688         estimate D2E/DX2                !
 ! D44   D(12,18,19,25)         57.7067         estimate D2E/DX2                !
 ! D45   D(17,18,19,15)          1.4378         estimate D2E/DX2                !
 ! D46   D(17,18,19,25)       -179.1867         estimate D2E/DX2                !
 --------------------------------------------------------------------------------
 Trust Radius=3.00D-01 FncErr=1.00D-07 GrdErr=1.00D-06 EigMax=2.50D+02 EigMin=1.00D-04
 Number of steps in this run=    120 maximum allowed number of steps=    150.
 GradGradGradGradGradGradGradGradGradGradGradGradGradGradGradGradGradGrad

                          Input orientation:                          
 ---------------------------------------------------------------------
 Center     Atomic      Atomic             Coordinates (Angstroms)
 Number     Number       Type             X           Y           Z
 ---------------------------------------------------------------------
      1          6           0       11.437000   12.502000   13.431000
      2          6           0       12.424000   12.343000   12.248000
      3          6           0       12.380000   11.282000   11.436000
      4          6           0       13.511000   13.289000   11.955000
      5          8           0       13.924000   13.535000   10.846000
      6          8           0       14.132000   13.921000   12.994000
      7          1           0       11.732000   11.998000   14.351000
      8          1           0       10.461000   12.135000   13.111000
      9          1           0       11.457000   13.575000   13.625000
     10          1           0       11.640000   10.500000   11.533000
     11          1           0       13.044000   11.185000   10.590000
     12          1           0       13.858000   13.735000   13.879000
     13          6           0       15.617000   15.420000   19.486000
     14          6           0       14.428000   15.200000   18.973000
     15          7           0       14.256000   14.359000   17.874000
     16          6           0       14.981000   13.201000   17.668000
     17          6           0       14.471000   12.639000   16.511000
     18          7           0       13.471000   13.433000   15.968000
     19          6           0       13.396000   14.434000   16.862000
     20          1           0       15.673000   16.210000   20.220000
     21          1           0       16.573000   15.034000   19.165000
     22          1           0       13.566000   15.620000   19.472000
     23          1           0       15.708000   12.840000   18.381000
     24          1           0       14.725000   11.724000   15.996000
     25          1           0       12.720000   15.276000   16.822000
 ---------------------------------------------------------------------
                    Distance matrix (angstroms):
                    1          2          3          4          5
     1  C    0.000000
     2  C    1.548851   0.000000
     3  C    2.521443   1.336788   0.000000
     4  C    2.664474   1.470488   2.361476   0.000000
     5  O    3.732892   2.374125   2.794288   1.208704   0.000000
     6  O    3.076939   2.442102   3.530041   1.365498   2.192297
     7  H    1.089698   2.240647   3.070795   3.251513   4.410471
     8  H    1.090718   2.154391   2.686223   3.459849   4.368363
     9  H    1.090580   2.085436   3.301742   2.662633   3.716252
    10  H    2.766156   2.126624   1.080987   3.384855   3.860032
    11  H    3.519690   2.115261   1.079825   2.551104   2.522387
    12  H    2.753586   2.579570   3.764298   2.005268   3.040303
    13  C    7.915185   8.488334   9.612685   8.105082   9.003837
    14  C    6.851208   7.576549   8.737929   7.331107   8.311099
    15  N    5.579916   6.250788   7.378018   6.060898   7.083924
    16  C    5.567828   6.053991   7.020369   5.899747   6.911475
    17  C    4.325543   4.738248   5.654145   4.701195   5.761445
    18  N    3.382349   4.015309   5.133820   4.015782   5.143005
    19  C    4.397962   5.158106   6.356794   5.040129   6.105673
    20  H    8.819494   9.437292  10.596589   9.028660   9.903863
    21  H    8.103596   8.502974   9.560136   8.025271   8.858327
    22  H    7.123780   8.014304   9.208808   7.870316   8.881625
    23  H    6.546616   6.974622   7.857224   6.806018   7.774439
    24  H    4.242105   4.441314   5.146648   4.500300   5.517592
    25  H    4.565090   5.441652   6.713913   5.316158   6.339816
                    6          7          8          9         10
     6  O    0.000000
     7  H    3.361455   0.000000
     8  H    4.084082   1.780958   0.000000
     9  H    2.770109   1.757734   1.824777   0.000000
    10  H    4.477480   3.192741   2.559951   3.723651   0.000000
    11  H    3.801139   4.065395   3.732269   4.176349   1.824744
    12  H    0.944932   2.785647   3.832680   2.419694   4.570390
    13  C    6.826294   7.291881   8.832677   7.420306  10.162339
    14  C    6.121429   6.235712   7.713259   6.329974   9.231281
    15  N    4.901186   4.935223   6.483392   5.148112   7.870427
    16  C    4.804735   4.796426   6.506382   5.376272   7.489720
    17  C    3.758688   3.546632   5.281488   4.276598   6.113131
    18  N    3.085408   2.774533   4.348259   3.092897   5.623546
    19  C    3.970679   3.874031   5.288632   3.869854   6.852600
    20  H    7.734939   8.229070   9.711254   8.259050  11.150478
    21  H    6.728929   7.471758   9.078087   7.680738  10.155741
    22  H    6.720970   6.535065   7.889776   6.543494   9.641141
    23  H    5.715952   5.723499   7.470002   6.421118   8.301767
    24  H    3.767023   3.426244   5.164672   4.441584   5.561814
    25  H    4.299227   4.222235   5.361015   3.835281   7.207642
                   11         12         13         14         15
    11  H    0.000000
    12  H    4.240592   0.000000
    13  C   10.183043   6.113244   0.000000
    14  C    9.397360   5.331038   1.313503   0.000000
    15  N    8.037405   4.062980   2.361480   1.394513   0.000000
    16  C    7.610145   3.987832   2.938296   2.450476   1.381675
    17  C    6.261684   2.916232   4.230591   3.552747   2.205084
    18  N    5.844546   2.145902   4.574911   3.614991   2.259765
    19  C    7.072333   3.098441   3.576369   2.471457   1.330176
    20  H   11.175830   7.044724   1.079811   2.031043   3.307235
    21  H   10.039884   6.082797   1.079802   2.159964   2.736932
    22  H    9.941410   5.909326   2.060776   1.080946   2.149378
    23  H    8.398548   4.948892   2.808150   2.749266   2.161646
    24  H    5.686925   3.045899   5.161025   4.586209   3.269567
    25  H    7.461842   3.511549   3.938304   2.747697   2.075305
                   16         17         18         19         20
    16  C    0.000000
    17  C    1.383688   0.000000
    18  N    2.285591   1.387546   0.000000
    19  C    2.163828   2.121521   1.344196   0.000000
    20  H    4.005702   5.287109   5.535344   4.428890   0.000000
    21  H    2.852256   4.147065   4.733541   3.969526   1.818241
    22  H    3.332897   4.298012   4.131587   2.871863   2.312370
    23  H    1.080379   2.251104   3.343409   3.192733   3.839277
    24  H    2.245584   1.080262   2.119901   3.140111   6.234186
    25  H    3.183310   3.180643   2.165633   1.080528   4.597713
                   21         22         23         24         25
    21  H    0.000000
    22  H    3.078911   0.000000
    23  H    2.485260   3.675166   0.000000
    24  H    4.941029   5.348334   2.810689   0.000000
    25  H    4.515952   2.802954   4.158452   4.161611   0.000000
 Stoichiometry    C9H12N2O2
 Framework group  C1[X(C9H12N2O2)]
 Deg. of freedom    69
 Full point group                 C1      NOp   1
 Largest Abelian subgroup         C1      NOp   1
 Largest concise Abelian subgroup C1      NOp   1
                         Standard orientation:                         
 ---------------------------------------------------------------------
 Center     Atomic      Atomic             Coordinates (Angstroms)
 Number     Number       Type             X           Y           Z
 ---------------------------------------------------------------------
      1          6           0        2.384849   -1.590851   -0.762566
      2          6           0        3.261664   -0.510261   -0.082523
      3          6           0        4.324006   -0.835288    0.660975
      4          6           0        2.976994    0.931267   -0.139908
      5          8           0        3.820933    1.796524   -0.131822
      6          8           0        1.676076    1.344858   -0.173662
      7          1           0        1.602765   -2.015560   -0.133752
      8          1           0        3.040621   -2.387213   -1.116733
      9          1           0        1.895146   -1.039744   -1.566207
     10          1           0        4.651569   -1.855952    0.800546
     11          1           0        4.957268   -0.083447    1.107891
     12          1           0        0.985071    0.700672   -0.152832
     13          6           0       -5.125905    0.791946   -0.013566
     14          6           0       -4.278147   -0.001754   -0.627274
     15          7           0       -2.980264   -0.184721   -0.151156
     16          6           0       -2.650875   -0.237670    1.189636
     17          6           0       -1.290245   -0.485465    1.232962
     18          7           0       -0.753240   -0.552911   -0.044677
     19          6           0       -1.842851   -0.380017   -0.812608
     20          1           0       -6.042304    1.001296   -0.544959
     21          1           0       -4.971008    1.390589    0.871649
     22          1           0       -4.631510   -0.580838   -1.468845
     23          1           0       -3.396259   -0.187423    1.970083
     24          1           0       -0.621534   -0.624350    2.069922
     25          1           0       -1.868309   -0.377100   -1.892832
 ---------------------------------------------------------------------
 Rotational constants (GHZ):           2.0163105           0.2714395           0.2593992
 Standard basis: 6-311++G(d,p) (5D, 7F)
 There are   383 symmetry adapted cartesian basis functions of A   symmetry.
 There are   370 symmetry adapted basis functions of A   symmetry.
   370 basis functions,   576 primitive gaussians,   383 cartesian basis functions
    48 alpha electrons       48 beta electrons
       nuclear repulsion energy       722.1786859775 Hartrees.
 NAtoms=   25 NActive=   25 NUniq=   25 SFac= 1.00D+00 NAtFMM=   60 NAOKFM=F Big=F
 Integral buffers will be    131072 words long.
 Raffenetti 2 integral format.
 Two-electron integral symmetry is turned on.
 Nuclear repulsion after empirical dispersion term =      722.1397034474 Hartrees.
 One-electron integrals computed using PRISM.
 NBasis=   370 RedAO= T EigKep=  1.06D-05  NBF=   370
 NBsUse=   370 1.00D-06 EigRej= -1.00D+00 NBFU=   370
 ExpMin= 3.60D-02 ExpMax= 8.59D+03 ExpMxC= 1.30D+03 IAcc=3 IRadAn=         5 AccDes= 0.00D+00
 Harris functional with IExCor=  402 and IRadAn=       5 diagonalized for initial guess.
 HarFok:  IExCor=  402 AccDes= 0.00D+00 IRadAn=         5 IDoV= 1 UseB2=F ITyADJ=14
 ICtDFT=  3500011 ScaDFX=  1.000000  1.000000  1.000000  1.000000
 FoFCou: FMM=F IPFlag=           0 FMFlag=      100000 FMFlg1=           0
         NFxFlg=           0 DoJE=T BraDBF=F KetDBF=T FulRan=T
         wScrn=  0.000000 ICntrl=       500 IOpCl=  0 I1Cent=   200000004 NGrid=           0
         NMat0=    1 NMatS0=      1 NMatT0=    0 NMatD0=    1 NMtDS0=    0 NMtDT0=    0
 Petite list used in FoFCou.
 Requested convergence on RMS density matrix=1.00D-08 within 128 cycles.
 Requested convergence on MAX density matrix=1.00D-06.
 Requested convergence on             energy=1.00D-06.
 No special actions if energy rises.
 SCF Done:  E(RB3LYP) =  -610.292986298     A.U. after   14 cycles
            NFock= 14  Conv=0.38D-08     -V/T= 2.0039
 SCF density gives NOpUse=  1 NOpAll=  1.

 **********************************************************************

            Population analysis using the SCF density.

 **********************************************************************

 Orbital symmetries:
 BldTbl:  Degeneracy threshold= 1.00D-02
       Occupied  (A) (A) (A) (A) (A) (A) (A) (A) (A) (A) (A) (A)
                 (A) (A) (A) (A) (A) (A) (A) (A) (A) (A) (A) (A)
                 (A) (A) (A) (A) (A) (A) (A) (A) (A) (A) (A) (A)
                 (A) (A) (A) (A) (A) (A) (A) (A) (A) (A) (A) (A)
       Virtual   (A) (A) (A) (A) (A) (A) (A) (A) (A) (A) (A) (A)
                 (A) (A) (A) (A) (A) (A) (A) (A) (A) (A) (A) (A)
                 (A) (A) (A) (A) (A) (A) (A) (A) (A) (A) (A) (A)
                 (A) (A) (A) (A) (A) (A) (A) (A) (A) (A) (A) (A)
                 (A) (A) (A) (A) (A) (A) (A) (A) (A) (A) (A) (A)
                 (A) (A) (A) (A) (A) (A) (A) (A) (A) (A) (A) (A)
                 (A) (A) (A) (A) (A) (A) (A) (A) (A) (A) (A) (A)
                 (A) (A) (A) (A) (A) (A) (A) (A) (A) (A) (A) (A)
                 (A) (A) (A) (A) (A) (A) (A) (A) (A) (A) (A) (A)
                 (A) (A) (A) (A) (A) (A) (A) (A) (A) (A) (A) (A)
                 (A) (A) (A) (A) (A) (A) (A) (A) (A) (A) (A) (A)
                 (A) (A) (A) (A) (A) (A) (A) (A) (A) (A) (A) (A)
                 (A) (A) (A) (A) (A) (A) (A) (A) (A) (A) (A) (A)
                 (A) (A) (A) (A) (A) (A) (A) (A) (A) (A) (A) (A)
                 (A) (A) (A) (A) (A) (A) (A) (A) (A) (A) (A) (A)
                 (A) (A) (A) (A) (A) (A) (A) (A) (A) (A) (A) (A)
                 (A) (A) (A) (A) (A) (A) (A) (A) (A) (A) (A) (A)
                 (A) (A) (A) (A) (A) (A) (A) (A) (A) (A) (A) (A)
                 (A) (A) (A) (A) (A) (A) (A) (A) (A) (A) (A) (A)
                 (A) (A) (A) (A) (A) (A) (A) (A) (A) (A) (A) (A)
                 (A) (A) (A) (A) (A) (A) (A) (A) (A) (A) (A) (A)
                 (A) (A) (A) (A) (A) (A) (A) (A) (A) (A) (A) (A)
                 (A) (A) (A) (A) (A) (A) (A) (A) (A) (A) (A) (A)
                 (A) (A) (A) (A) (A) (A) (A) (A) (A) (A) (A) (A)
                 (A) (A) (A) (A) (A) (A) (A) (A) (A) (A) (A) (A)
                 (A) (A) (A) (A) (A) (A) (A) (A) (A) (A) (A) (A)
                 (A) (A) (A) (A) (A) (A) (A) (A) (A) (A)
 The electronic state is 1-A.
 Alpha  occ. eigenvalues --  -19.14006 -19.08940 -14.41142 -14.32887 -10.29037
 Alpha  occ. eigenvalues --  -10.25332 -10.25264 -10.22378 -10.21333 -10.20411
 Alpha  occ. eigenvalues --  -10.19345 -10.17328 -10.17325  -1.08275  -1.06295
 Alpha  occ. eigenvalues --   -1.00126  -0.92802  -0.81025  -0.80863  -0.77369
 Alpha  occ. eigenvalues --   -0.69614  -0.67502  -0.64124  -0.63343  -0.59418
 Alpha  occ. eigenvalues --   -0.58949  -0.57150  -0.50482  -0.49417  -0.47865
 Alpha  occ. eigenvalues --   -0.46963  -0.45755  -0.45302  -0.44031  -0.42968
 Alpha  occ. eigenvalues --   -0.42226  -0.42129  -0.41049  -0.40427  -0.36703
 Alpha  occ. eigenvalues --   -0.35568  -0.35083  -0.31750  -0.30513  -0.28580
 Alpha  occ. eigenvalues --   -0.27726  -0.25917  -0.25674
 Alpha virt. eigenvalues --   -0.05638  -0.04185  -0.02099  -0.00919  -0.00324
 Alpha virt. eigenvalues --    0.00036   0.01010   0.01349   0.01783   0.02593
 Alpha virt. eigenvalues --    0.02913   0.03634   0.03865   0.04084   0.04874
 Alpha virt. eigenvalues --    0.05191   0.06061   0.06422   0.06915   0.07268
 Alpha virt. eigenvalues --    0.07765   0.08539   0.09364   0.09604   0.09789
 Alpha virt. eigenvalues --    0.10057   0.10290   0.10696   0.11206   0.11788
 Alpha virt. eigenvalues --    0.12161   0.12509   0.12699   0.13044   0.13092
 Alpha virt. eigenvalues --    0.13481   0.13633   0.13985   0.14396   0.14966
 Alpha virt. eigenvalues --    0.15226   0.15541   0.15632   0.16611   0.16852
 Alpha virt. eigenvalues --    0.17451   0.17842   0.18251   0.18416   0.19375
 Alpha virt. eigenvalues --    0.19494   0.19905   0.20579   0.21370   0.21902
 Alpha virt. eigenvalues --    0.22420   0.22623   0.22687   0.22901   0.23594
 Alpha virt. eigenvalues --    0.24251   0.24908   0.25101   0.26532   0.27201
 Alpha virt. eigenvalues --    0.27533   0.27964   0.28454   0.29184   0.29976
 Alpha virt. eigenvalues --    0.30092   0.30752   0.31154   0.31407   0.32061
 Alpha virt. eigenvalues --    0.32881   0.33298   0.33346   0.33652   0.35136
 Alpha virt. eigenvalues --    0.35696   0.36333   0.37117   0.37368   0.38087
 Alpha virt. eigenvalues --    0.39204   0.40169   0.41705   0.43131   0.44088
 Alpha virt. eigenvalues --    0.44504   0.45220   0.48105   0.48488   0.49818
 Alpha virt. eigenvalues --    0.50307   0.52332   0.53425   0.53904   0.55384
 Alpha virt. eigenvalues --    0.56834   0.57425   0.58042   0.59715   0.60585
 Alpha virt. eigenvalues --    0.61091   0.61489   0.62393   0.63691   0.64373
 Alpha virt. eigenvalues --    0.65048   0.66118   0.66891   0.67506   0.68063
 Alpha virt. eigenvalues --    0.68859   0.69418   0.70605   0.71623   0.72668
 Alpha virt. eigenvalues --    0.73102   0.73976   0.74705   0.75739   0.76140
 Alpha virt. eigenvalues --    0.78340   0.78731   0.79313   0.79905   0.81289
 Alpha virt. eigenvalues --    0.82821   0.85081   0.85258   0.86103   0.87298
 Alpha virt. eigenvalues --    0.88846   0.89675   0.90483   0.93218   0.93480
 Alpha virt. eigenvalues --    0.95616   0.96344   0.99720   1.01007   1.02391
 Alpha virt. eigenvalues --    1.03606   1.04982   1.06771   1.07485   1.07996
 Alpha virt. eigenvalues --    1.09827   1.11556   1.14566   1.14758   1.17218
 Alpha virt. eigenvalues --    1.18443   1.18984   1.19534   1.21502   1.24369
 Alpha virt. eigenvalues --    1.24876   1.26147   1.27821   1.31673   1.32984
 Alpha virt. eigenvalues --    1.35107   1.36749   1.39967   1.41271   1.41948
 Alpha virt. eigenvalues --    1.45807   1.47270   1.48890   1.49439   1.50483
 Alpha virt. eigenvalues --    1.51935   1.52977   1.55180   1.56478   1.58728
 Alpha virt. eigenvalues --    1.59360   1.61051   1.61885   1.62188   1.63969
 Alpha virt. eigenvalues --    1.64607   1.65889   1.67332   1.69473   1.69940
 Alpha virt. eigenvalues --    1.71142   1.72430   1.73334   1.74908   1.76444
 Alpha virt. eigenvalues --    1.77340   1.78189   1.80255   1.81705   1.82559
 Alpha virt. eigenvalues --    1.83287   1.85197   1.86507   1.86890   1.88638
 Alpha virt. eigenvalues --    1.91982   1.96018   1.99426   2.00748   2.01555
 Alpha virt. eigenvalues --    2.02477   2.05093   2.06704   2.07364   2.09120
 Alpha virt. eigenvalues --    2.10718   2.12284   2.16997   2.18536   2.20636
 Alpha virt. eigenvalues --    2.22736   2.26019   2.28405   2.29057   2.30669
 Alpha virt. eigenvalues --    2.32156   2.36332   2.40269   2.40783   2.42404
 Alpha virt. eigenvalues --    2.48962   2.50553   2.52227   2.54760   2.55369
 Alpha virt. eigenvalues --    2.56109   2.57069   2.57337   2.59118   2.60728
 Alpha virt. eigenvalues --    2.61645   2.63397   2.65002   2.66838   2.67618
 Alpha virt. eigenvalues --    2.69715   2.70161   2.73224   2.73714   2.74293
 Alpha virt. eigenvalues --    2.75805   2.76272   2.77956   2.78870   2.80234
 Alpha virt. eigenvalues --    2.80546   2.83476   2.86892   2.87628   2.89477
 Alpha virt. eigenvalues --    2.89791   2.90691   2.94697   2.96725   2.97509
 Alpha virt. eigenvalues --    2.98922   3.01550   3.02082   3.07188   3.11109
 Alpha virt. eigenvalues --    3.15751   3.16690   3.22376   3.27147   3.32008
 Alpha virt. eigenvalues --    3.36628   3.39232   3.39979   3.47899   3.54770
 Alpha virt. eigenvalues --    3.56749   3.57808   3.59741   3.63068   3.70974
 Alpha virt. eigenvalues --    3.73015   3.77666   3.78288   3.80582   3.81821
 Alpha virt. eigenvalues --    3.89252   3.89713   3.95802   3.99372   4.03509
 Alpha virt. eigenvalues --    4.09273   4.09788   4.23623   4.27128   4.54116
 Alpha virt. eigenvalues --    4.74965   5.01754   5.04706   5.08747   5.19654
 Alpha virt. eigenvalues --    5.22333   5.35952   5.67276   5.93623  23.70276
 Alpha virt. eigenvalues --   23.72722  23.79116  23.86263  23.91214  23.96236
 Alpha virt. eigenvalues --   24.11134  24.24136  24.29158  35.49502  35.64357
 Alpha virt. eigenvalues --   49.90737  50.03901
          Condensed to atoms (all electrons):
               1          2          3          4          5          6
     1  C    7.158135   0.068244  -1.040455  -0.543924   0.016193   0.138527
     2  C    0.068244   7.026059  -1.049297  -0.388337  -0.195285  -0.127539
     3  C   -1.040455  -1.049297   7.254654   0.405246   0.054297  -0.029820
     4  C   -0.543924  -0.388337   0.405246   6.458950   0.413596  -0.058530
     5  O    0.016193  -0.195285   0.054297   0.413596   8.063067  -0.101887
     6  O    0.138527  -0.127539  -0.029820  -0.058530  -0.101887   8.265295
     7  H    0.308136   0.014312   0.017819   0.003905  -0.001304  -0.003642
     8  H    0.347920  -0.070726   0.034003   0.028595  -0.000844   0.001643
     9  H    0.315050  -0.014566   0.022015   0.007862   0.001497  -0.000324
    10  H   -0.072777  -0.094709   0.463538   0.031135   0.001389  -0.001678
    11  H    0.069578   0.055036   0.250601  -0.018933  -0.005670   0.008956
    12  H   -0.026852  -0.046811   0.035603  -0.045370   0.011131   0.212504
    13  C   -0.001409   0.001102   0.000133   0.000797   0.000014  -0.000725
    14  C    0.001339  -0.000542  -0.000493  -0.000833  -0.000010  -0.003852
    15  N   -0.003301   0.003339  -0.001057  -0.005174   0.000057  -0.011114
    16  C    0.037641  -0.037089   0.009096   0.019302   0.000324   0.021951
    17  C   -0.040035   0.036236  -0.001188   0.011664  -0.000120  -0.040882
    18  N    0.030025   0.008089  -0.014420  -0.032477   0.000975   0.058540
    19  C   -0.000158   0.010183  -0.003032   0.012984   0.000671  -0.016716
    20  H    0.000021  -0.000016  -0.000001   0.000012   0.000000  -0.000017
    21  H    0.000021  -0.000000  -0.000037   0.000044  -0.000000  -0.000267
    22  H    0.000256  -0.000205  -0.000059   0.000072  -0.000000   0.000030
    23  H   -0.000851   0.000573   0.000300   0.000031   0.000017   0.001505
    24  H   -0.003157   0.001884   0.000237  -0.002866   0.000062  -0.002455
    25  H    0.003904  -0.002642   0.000563   0.002588  -0.000119  -0.000630
               7          8          9         10         11         12
     1  C    0.308136   0.347920   0.315050  -0.072777   0.069578  -0.026852
     2  C    0.014312  -0.070726  -0.014566  -0.094709   0.055036  -0.046811
     3  C    0.017819   0.034003   0.022015   0.463538   0.250601   0.035603
     4  C    0.003905   0.028595   0.007862   0.031135  -0.018933  -0.045370
     5  O   -0.001304  -0.000844   0.001497   0.001389  -0.005670   0.011131
     6  O   -0.003642   0.001643  -0.000324  -0.001678   0.008956   0.212504
     7  H    0.568713  -0.034892  -0.048458   0.005932  -0.003266  -0.006752
     8  H   -0.034892   0.541657  -0.014290   0.001927  -0.000704   0.005582
     9  H   -0.048458  -0.014290   0.590940   0.004716  -0.004662  -0.004190
    10  H    0.005932   0.001927   0.004716   0.559749  -0.032853   0.001056
    11  H   -0.003266  -0.000704  -0.004662  -0.032853   0.487170   0.000162
    12  H   -0.006752   0.005582  -0.004190   0.001056   0.000162   0.506602
    13  C    0.000861   0.000025   0.000083   0.000005  -0.000013  -0.003288
    14  C   -0.000856  -0.000030  -0.000870  -0.000047   0.000033   0.004633
    15  N   -0.001086  -0.000803  -0.001981  -0.000166   0.000142   0.013088
    16  C    0.000366   0.003239  -0.005092   0.000647  -0.000746  -0.016045
    17  C   -0.012145  -0.001491   0.010284  -0.000163   0.000159   0.003051
    18  N   -0.006676   0.008644  -0.019913  -0.000243   0.000697   0.017522
    19  C    0.001939  -0.003469  -0.001072  -0.000804   0.000260  -0.034849
    20  H   -0.000030  -0.000001   0.000013  -0.000000   0.000000  -0.000043
    21  H    0.000018   0.000001  -0.000059  -0.000002   0.000001   0.000247
    22  H   -0.000170   0.000002  -0.000061  -0.000001   0.000002   0.000131
    23  H    0.000460  -0.000017   0.000223   0.000047  -0.000038  -0.001644
    24  H   -0.001110  -0.000072   0.000735  -0.000501   0.000062   0.000627
    25  H   -0.000172   0.000077  -0.001741  -0.000024  -0.000003  -0.002382
              13         14         15         16         17         18
     1  C   -0.001409   0.001339  -0.003301   0.037641  -0.040035   0.030025
     2  C    0.001102  -0.000542   0.003339  -0.037089   0.036236   0.008089
     3  C    0.000133  -0.000493  -0.001057   0.009096  -0.001188  -0.014420
     4  C    0.000797  -0.000833  -0.005174   0.019302   0.011664  -0.032477
     5  O    0.000014  -0.000010   0.000057   0.000324  -0.000120   0.000975
     6  O   -0.000725  -0.003852  -0.011114   0.021951  -0.040882   0.058540
     7  H    0.000861  -0.000856  -0.001086   0.000366  -0.012145  -0.006676
     8  H    0.000025  -0.000030  -0.000803   0.003239  -0.001491   0.008644
     9  H    0.000083  -0.000870  -0.001981  -0.005092   0.010284  -0.019913
    10  H    0.000005  -0.000047  -0.000166   0.000647  -0.000163  -0.000243
    11  H   -0.000013   0.000033   0.000142  -0.000746   0.000159   0.000697
    12  H   -0.003288   0.004633   0.013088  -0.016045   0.003051   0.017522
    13  C    5.434709   0.254762  -0.094267   0.036172  -0.011762   0.021816
    14  C    0.254762   5.494786   0.148311  -0.239299   0.133560  -0.084828
    15  N   -0.094267   0.148311   6.652610   0.119706   0.028170  -0.137747
    16  C    0.036172  -0.239299   0.119706   6.792106  -0.904428   0.464811
    17  C   -0.011762   0.133560   0.028170  -0.904428   6.496004  -0.244872
    18  N    0.021816  -0.084828  -0.137747   0.464811  -0.244872   7.043285
    19  C   -0.011675  -0.083598   0.299077  -0.291317   0.119578   0.255810
    20  H    0.396031  -0.053280   0.021403  -0.000493   0.001363  -0.000510
    21  H    0.371670   0.028525  -0.025929  -0.013617   0.014994  -0.003964
    22  H   -0.080953   0.471143  -0.068024  -0.004963  -0.002625  -0.004107
    23  H   -0.007251  -0.005311  -0.094643   0.516766  -0.107077   0.034480
    24  H   -0.002564   0.012899   0.024822  -0.152473   0.519970  -0.110973
    25  H   -0.000333  -0.006440  -0.098580   0.012082   0.029435  -0.048762
              19         20         21         22         23         24
     1  C   -0.000158   0.000021   0.000021   0.000256  -0.000851  -0.003157
     2  C    0.010183  -0.000016  -0.000000  -0.000205   0.000573   0.001884
     3  C   -0.003032  -0.000001  -0.000037  -0.000059   0.000300   0.000237
     4  C    0.012984   0.000012   0.000044   0.000072   0.000031  -0.002866
     5  O    0.000671   0.000000  -0.000000  -0.000000   0.000017   0.000062
     6  O   -0.016716  -0.000017  -0.000267   0.000030   0.001505  -0.002455
     7  H    0.001939  -0.000030   0.000018  -0.000170   0.000460  -0.001110
     8  H   -0.003469  -0.000001   0.000001   0.000002  -0.000017  -0.000072
     9  H   -0.001072   0.000013  -0.000059  -0.000061   0.000223   0.000735
    10  H   -0.000804  -0.000000  -0.000002  -0.000001   0.000047  -0.000501
    11  H    0.000260   0.000000   0.000001   0.000002  -0.000038   0.000062
    12  H   -0.034849  -0.000043   0.000247   0.000131  -0.001644   0.000627
    13  C   -0.011675   0.396031   0.371670  -0.080953  -0.007251  -0.002564
    14  C   -0.083598  -0.053280   0.028525   0.471143  -0.005311   0.012899
    15  N    0.299077   0.021403  -0.025929  -0.068024  -0.094643   0.024822
    16  C   -0.291317  -0.000493  -0.013617  -0.004963   0.516766  -0.152473
    17  C    0.119578   0.001363   0.014994  -0.002625  -0.107077   0.519970
    18  N    0.255810  -0.000510  -0.003964  -0.004107   0.034480  -0.110973
    19  C    5.449839   0.005858  -0.012436  -0.009062   0.004889   0.029885
    20  H    0.005858   0.510840  -0.027904  -0.009220   0.000479   0.000026
    21  H   -0.012436  -0.027904   0.519148   0.007854  -0.010893   0.000748
    22  H   -0.009062  -0.009220   0.007854   0.510724  -0.000003   0.000461
    23  H    0.004889   0.000479  -0.010893  -0.000003   0.528111  -0.007616
    24  H    0.029885   0.000026   0.000748   0.000461  -0.007616   0.523338
    25  H    0.448573   0.000571  -0.000209  -0.002672  -0.000352   0.000418
              25
     1  C    0.003904
     2  C   -0.002642
     3  C    0.000563
     4  C    0.002588
     5  O   -0.000119
     6  O   -0.000630
     7  H   -0.000172
     8  H    0.000077
     9  H   -0.001741
    10  H   -0.000024
    11  H   -0.000003
    12  H   -0.002382
    13  C   -0.000333
    14  C   -0.006440
    15  N   -0.098580
    16  C    0.012082
    17  C    0.029435
    18  N   -0.048762
    19  C    0.448573
    20  H    0.000571
    21  H   -0.000209
    22  H   -0.002672
    23  H   -0.000352
    24  H    0.000418
    25  H    0.512554
 Mulliken charges:
               1
     1  C   -0.762071
     2  C    0.802706
     3  C   -0.408245
     4  C   -0.300339
     5  O   -0.258048
     6  O   -0.308871
     7  H    0.198099
     8  H    0.154025
     9  H    0.163860
    10  H    0.133825
    11  H    0.194031
    12  H    0.376287
    13  C   -0.303938
    14  C   -0.069702
    15  N    0.233149
    16  C   -0.368646
    17  C   -0.037681
    18  N   -0.235202
    19  C   -0.171357
    20  H    0.154898
    21  H    0.152047
    22  H    0.191452
    23  H    0.147813
    24  H    0.167613
    25  H    0.154293
 Sum of Mulliken charges =  -0.00000
 Mulliken charges with hydrogens summed into heavy atoms:
               1
     1  C   -0.246087
     2  C    0.802706
     3  C   -0.080389
     4  C   -0.300339
     5  O   -0.258048
     6  O    0.067416
    13  C    0.003007
    14  C    0.121750
    15  N    0.233149
    16  C   -0.220832
    17  C    0.129932
    18  N   -0.235202
    19  C   -0.017064
 DipInt: DoE/N= T F RetVal/Mat= T F Init=T NMatP=  1 IDeriv=0 Min/MaxMlt=  0  4
 Entering OneElI...
 OneElI was handed 25769427713 working-precision words.
 Multipole integrals L=0 to 4 MinM= 0 MaxM= 0.
 Requested accuracy = 0.1000D-12
 ShPair: Thresh= 1.00D-13 NBox=     0 BxSize= 0.00D+00 RnKept= 2.11D+01
         NSMCal=                 9591 NSMKep=                8120
 PrmmSu-InSpLW:  IPartL=    0 NPrtUS=    1 NPrtUL=    1 DoSpLW=F IThBeg=    0 IThEnd=    0 NThAct=    1.
 PrsmSu:  NPrtUS=   1 ThrOK=F IAlg=1 NPAlg=1 LenDen=           0 ISkipM=0 DoSpLW=F IThBeg=    0 IThEnd=    0.
 Prism:   IPart=     0 DynPar=F LinDyn=F Incr=          81.
 PRISM was handed 25768885814 working-precision words and  8120 shell-pairs
 IPart=  0 NShTot=        8120 NBatch=          97 AvBLen=        83.7
 PrsmSu-ThDecC:  IPartSL=    0    0 NPrtUSL=    1    1 IThBeg=    0 IThEnd=    0 CPU=   -1 GPU=   -1 NThAct=    1.
 PrSmSu:  NxtVal=             82.
 Electronic moments (au):
        -96.00000000         -2.93310963         -1.56010583          0.00919415
      -3513.02520750       -399.90746475       -236.68234841        -12.60304986
          3.50100067          1.39650811       2768.73314436       -130.59918057
       -133.21977327      -1349.08235768      -1266.76850287         26.13954182
        333.70685160        181.16253667        129.13697966         29.10034988
    -216392.40538832      -4361.19118588      -2013.07224578       9441.94453212
      -7710.46208359       -551.48660306       -237.02644919        465.81526867
         -3.05678259     -15159.53774850      -7283.39906412       -791.75178196
        688.74710418        656.29102370        321.00750273
 Electronic spatial extent (au):  <R**2>=           4149.6150
 DipInt: DoE/N= F T RetVal/Mat= T F Init=T NMatP=  1 IDeriv=0 Min/MaxMlt=  0  4
 Nuclear    moments (au):
         96.00000000          0.00000000          0.00000000          0.00000000
       3461.75919775        335.01226283        183.30955291         -0.00000000
          0.00000000         -0.00000000      -2954.19144219        115.56064463
        130.32130080       1325.67300382       1212.01317282        -22.97560318
       -348.50133922       -179.24706089       -128.12245214        -36.03582611
     204371.32502195       2889.20998315       1194.75062771     -10202.76343771
       8108.83152989        409.73966115        253.70411073       -469.84900983
          6.31870105      12621.49421061       5168.33941533        404.74273247
       -590.49614579       -646.42061209       -274.93861425
 Total      moments (au):
          0.00000000         -2.93310963         -1.56010583          0.00919415
        -51.26600975        -64.89520191        -53.37279550        -12.60304986
          3.50100067          1.39650811       -185.45829783        -15.03853594
         -2.89847247        -23.40935387        -54.75533005          3.16393864
        -14.79448762          1.91547577          1.01452751         -6.93547623
     -12021.08036638      -1471.98120273       -818.32161806       -760.81890559
        398.36944631       -141.74694191         16.67766154         -4.03374115
          3.26191846      -2538.04353789      -2115.05964879       -387.00904949
         98.25095839          9.87041161         46.06888848
 Traceless Quadrup. (au):
          5.24532598         -8.38386619          3.13854022        -12.60304986
          3.50100067          1.39650811
 Charge=              0.0000 electrons
 Dipole moment (field-independent basis, Debye):
    X=             -7.4552    Y=             -3.9654    Z=              0.0234  Tot=              8.4442
 Quadrupole moment (field-independent basis, Debye-Ang):
   XX=            -68.9545   YY=            -87.2863   ZZ=            -71.7882
   XY=            -16.9515   XZ=              4.7090   YZ=              1.8784
 Traceless Quadrupole moment (field-independent basis, Debye-Ang):
   XX=              7.0551   YY=            -11.2766   ZZ=              4.2214
   XY=            -16.9515   XZ=              4.7090   YZ=              1.8784
 Octapole moment (field-independent basis, Debye-Ang**2):
  XXX=           -132.0021  YYY=            -10.7039  ZZZ=             -2.0630  XYY=            -16.6619
  XXY=            -38.9727  XXZ=              2.2520  XZZ=            -10.5301  YZZ=              1.3634
  YYZ=              0.7221  XYZ=             -4.9364
 Hexadecapole moment (field-independent basis, Debye-Ang**3):
 XXXX=          -4527.7153 YYYY=           -554.4187 ZZZZ=           -308.2192 XXXY=           -286.5609
 XXXZ=            150.0450 YYYX=            -53.3887 YYYZ=              6.2816 ZZZX=             -1.5193
 ZZZY=              1.2286 XXYY=           -955.9489 XXZZ=           -796.6329 YYZZ=           -145.7662
 XXYZ=             37.0060 YYXZ=              3.7177 ZZXY=             17.3518
 N-N= 7.221397034474D+02 E-N=-2.867753927744D+03  KE= 6.079289180732D+02
 Entering OneElI...
 OneElI was handed 25769510018 working-precision words.
 Calculate electrostatic properties
    NBasis =   370  MinDer = 0  MaxDer = 0
    NGrid  =    25  NMatD  =   1
 Requested accuracy = 0.1000D-12
 ShPair: Thresh= 1.00D-13 NBox=     0 BxSize= 0.00D+00 RnKept= 2.11D+01
         NSMCal=                 9591 NSMKep=                7555
 PrmmSu-InSpLW:  IPartL=    0 NPrtUS=   48 NPrtUL=    1 DoSpLW=F IThBeg=    0 IThEnd=   47 NThAct=   48.
 PrsmSu:  NPrtUS=  48 ThrOK=T IAlg=1 NPAlg=1 LenDen=           0 ISkipM=0 DoSpLW=F IThBeg=    0 IThEnd=   47.
 Prism:   IPart=     0 DynPar=F LinDyn=F Incr=          39.
 PRISM was handed   536705794 working-precision words and  7555 shell-pairs
 PRISM was handed   536705794 working-precision words and  7555 shell-pairs
 PRISM was handed   536705794 working-precision words and  7555 shell-pairs
 PRISM was handed   536705794 working-precision words and  7555 shell-pairs
 PRISM was handed   536705794 working-precision words and  7555 shell-pairs
 PRISM was handed   536705794 working-precision words and  7555 shell-pairs
 PRISM was handed   536705794 working-precision words and  7555 shell-pairs
 PRISM was handed   536705794 working-precision words and  7555 shell-pairs
 PRISM was handed   536705794 working-precision words and  7555 shell-pairs
 PRISM was handed   536705794 working-precision words and  7555 shell-pairs
 PRISM was handed   536705794 working-precision words and  7555 shell-pairs
 PRISM was handed   536705794 working-precision words and  7555 shell-pairs
 PRISM was handed   536705794 working-precision words and  7555 shell-pairs
 PRISM was handed   536705794 working-precision words and  7555 shell-pairs
 PRISM was handed   536705794 working-precision words and  7555 shell-pairs
 PRISM was handed   536705794 working-precision words and  7555 shell-pairs
 PRISM was handed   536705794 working-precision words and  7555 shell-pairs
 PRISM was handed   536705794 working-precision words and  7555 shell-pairs
 PRISM was handed   536705794 working-precision words and  7555 shell-pairs
 PRISM was handed   536705794 working-precision words and  7555 shell-pairs
 PRISM was handed   536705794 working-precision words and  7555 shell-pairs
 PRISM was handed   536705794 working-precision words and  7555 shell-pairs
 PRISM was handed   536705794 working-precision words and  7555 shell-pairs
 PRISM was handed   536705794 working-precision words and  7555 shell-pairs
 PRISM was handed   536705794 working-precision words and  7555 shell-pairs
 PRISM was handed   536705794 working-precision words and  7555 shell-pairs
 PRISM was handed   536705794 working-precision words and  7555 shell-pairs
 PRISM was handed   536705794 working-precision words and  7555 shell-pairs
 PRISM was handed   536705794 working-precision words and  7555 shell-pairs
 PRISM was handed   536705794 working-precision words and  7555 shell-pairs
 PRISM was handed   536705794 working-precision words and  7555 shell-pairs
 PRISM was handed   536705794 working-precision words and  7555 shell-pairs
 PRISM was handed   536705794 working-precision words and  7555 shell-pairs
 PRISM was handed   536705794 working-precision words and  7555 shell-pairs
 PRISM was handed   536705794 working-precision words and  7555 shell-pairs
 PRISM was handed   536705794 working-precision words and  7555 shell-pairs
 PRISM was handed   536705794 working-precision words and  7555 shell-pairs
 PRISM was handed   536705794 working-precision words and  7555 shell-pairs
 PRISM was handed   536705794 working-precision words and  7555 shell-pairs
 PRISM was handed   536705794 working-precision words and  7555 shell-pairs
 PRISM was handed   536705794 working-precision words and  7555 shell-pairs
 PRISM was handed   536705794 working-precision words and  7555 shell-pairs
 PRISM was handed   536705794 working-precision words and  7555 shell-pairs
 PRISM was handed   536705794 working-precision words and  7555 shell-pairs
 PRISM was handed   536705794 working-precision words and  7555 shell-pairs
 PRISM was handed   536705794 working-precision words and  7555 shell-pairs
 PRISM was handed   536705794 working-precision words and  7555 shell-pairs
 PRISM was handed   536705794 working-precision words and  7555 shell-pairs
 IPart= 34 NShTot=        3675 NBatch=         147 AvBLen=        25.0
 IPart= 42 NShTot=        3600 NBatch=         144 AvBLen=        25.0
 PrsmSu-ThDecC:  IPartSL=   34    0 NPrtUSL=   48    1 IThBeg=    0 IThEnd=   47 CPU=   -1 GPU=   -1 NThAct=   48.
 IPart= 31 NShTot=        3700 NBatch=         148 AvBLen=        25.0
 IPart= 44 NShTot=        3575 NBatch=         143 AvBLen=        25.0
 PrsmSu-ThDecC:  IPartSL=   42    0 NPrtUSL=   48    1 IThBeg=    0 IThEnd=   47 CPU=   -1 GPU=   -1 NThAct=   47.
 IPart= 40 NShTot=        3650 NBatch=         146 AvBLen=        25.0
 IPart= 20 NShTot=        3875 NBatch=         155 AvBLen=        25.0
 PrsmSu-ThDecC:  IPartSL=   44    0 NPrtUSL=   48    1 IThBeg=    0 IThEnd=   47 CPU=   -1 GPU=   -1 NThAct=   46.
 PrsmSu-ThDecC:  IPartSL=   20    0 NPrtUSL=   48    1 IThBeg=    0 IThEnd=   47 CPU=   -1 GPU=   -1 NThAct=   45.
 PrsmSu-ThDecC:  IPartSL=   31    0 NPrtUSL=   48    1 IThBeg=    0 IThEnd=   47 CPU=   -1 GPU=   -1 NThAct=   44.
 PrsmSu-ThDecC:  IPartSL=   40    0 NPrtUSL=   48    1 IThBeg=    0 IThEnd=   47 CPU=   -1 GPU=   -1 NThAct=   43.
 IPart=  0 NShTot=        4875 NBatch=         195 AvBLen=        25.0
 PrsmSu-ThDecC:  IPartSL=    0    0 NPrtUSL=   48    1 IThBeg=    0 IThEnd=   47 CPU=   -1 GPU=   -1 NThAct=   42.
 IPart= 26 NShTot=        3750 NBatch=         150 AvBLen=        25.0
 PrsmSu-ThDecC:  IPartSL=   26    0 NPrtUSL=   48    1 IThBeg=    0 IThEnd=   47 CPU=   -1 GPU=   -1 NThAct=   41.
 IPart=  8 NShTot=        4350 NBatch=         174 AvBLen=        25.0
 PrsmSu-ThDecC:  IPartSL=    8    0 NPrtUSL=   48    1 IThBeg=    0 IThEnd=   47 CPU=   -1 GPU=   -1 NThAct=   40.
 IPart= 32 NShTot=        3700 NBatch=         148 AvBLen=        25.0
 PrsmSu-ThDecC:  IPartSL=   32    0 NPrtUSL=   48    1 IThBeg=    0 IThEnd=   47 CPU=   -1 GPU=   -1 NThAct=   39.
 IPart= 38 NShTot=        3650 NBatch=         146 AvBLen=        25.0
 PrsmSu-ThDecC:  IPartSL=   38    0 NPrtUSL=   48    1 IThBeg=    0 IThEnd=   47 CPU=   -1 GPU=   -1 NThAct=   38.
 IPart= 23 NShTot=        3850 NBatch=         154 AvBLen=        25.0
 PrsmSu-ThDecC:  IPartSL=   23    0 NPrtUSL=   48    1 IThBeg=    0 IThEnd=   47 CPU=   -1 GPU=   -1 NThAct=   37.
 IPart=  9 NShTot=        4250 NBatch=         170 AvBLen=        25.0
 PrsmSu-ThDecC:  IPartSL=    9    0 NPrtUSL=   48    1 IThBeg=    0 IThEnd=   47 CPU=   -1 GPU=   -1 NThAct=   36.
 IPart=  5 NShTot=        4500 NBatch=         180 AvBLen=        25.0
 PrsmSu-ThDecC:  IPartSL=    5    0 NPrtUSL=   48    1 IThBeg=    0 IThEnd=   47 CPU=   -1 GPU=   -1 NThAct=   35.
 IPart= 17 NShTot=        3925 NBatch=         157 AvBLen=        25.0
 PrsmSu-ThDecC:  IPartSL=   17    0 NPrtUSL=   48    1 IThBeg=    0 IThEnd=   47 CPU=   -1 GPU=   -1 NThAct=   34.
 IPart= 46 NShTot=        3550 NBatch=         142 AvBLen=        25.0
 PrsmSu-ThDecC:  IPartSL=   46    0 NPrtUSL=   48    1 IThBeg=    0 IThEnd=   47 CPU=   -1 GPU=   -1 NThAct=   33.
 IPart= 24 NShTot=        3800 NBatch=         152 AvBLen=        25.0
 PrsmSu-ThDecC:  IPartSL=   24    0 NPrtUSL=   48    1 IThBeg=    0 IThEnd=   47 CPU=   -1 GPU=   -1 NThAct=   32.
 IPart= 33 NShTot=        3675 NBatch=         147 AvBLen=        25.0
 PrsmSu-ThDecC:  IPartSL=   33    0 NPrtUSL=   48    1 IThBeg=    0 IThEnd=   47 CPU=   -1 GPU=   -1 NThAct=   31.
 IPart= 29 NShTot=        3725 NBatch=         149 AvBLen=        25.0
 PrsmSu-ThDecC:  IPartSL=   29    0 NPrtUSL=   48    1 IThBeg=    0 IThEnd=   47 CPU=   -1 GPU=   -1 NThAct=   30.
 IPart= 13 NShTot=        3975 NBatch=         159 AvBLen=        25.0
 PrsmSu-ThDecC:  IPartSL=   13    0 NPrtUSL=   48    1 IThBeg=    0 IThEnd=   47 CPU=   -1 GPU=   -1 NThAct=   29.
 IPart= 18 NShTot=        3900 NBatch=         156 AvBLen=        25.0
 PrsmSu-ThDecC:  IPartSL=   18    0 NPrtUSL=   48    1 IThBeg=    0 IThEnd=   47 CPU=   -1 GPU=   -1 NThAct=   28.
 IPart=  2 NShTot=        4700 NBatch=         188 AvBLen=        25.0
 PrsmSu-ThDecC:  IPartSL=    2    0 NPrtUSL=   48    1 IThBeg=    0 IThEnd=   47 CPU=   -1 GPU=   -1 NThAct=   27.
 IPart= 43 NShTot=        3600 NBatch=         144 AvBLen=        25.0
 PrsmSu-ThDecC:  IPartSL=   43    0 NPrtUSL=   48    1 IThBeg=    0 IThEnd=   47 CPU=   -1 GPU=   -1 NThAct=   26.
 IPart= 25 NShTot=        3750 NBatch=         150 AvBLen=        25.0
 PrsmSu-ThDecC:  IPartSL=   25    0 NPrtUSL=   48    1 IThBeg=    0 IThEnd=   47 CPU=   -1 GPU=   -1 NThAct=   25.
 IPart= 45 NShTot=        3575 NBatch=         143 AvBLen=        25.0
 PrsmSu-ThDecC:  IPartSL=   45    0 NPrtUSL=   48    1 IThBeg=    0 IThEnd=   47 CPU=   -1 GPU=   -1 NThAct=   24.
 IPart= 47 NShTot=        3500 NBatch=         140 AvBLen=        25.0
 PrsmSu-ThDecC:  IPartSL=   47    0 NPrtUSL=   48    1 IThBeg=    0 IThEnd=   47 CPU=   -1 GPU=   -1 NThAct=   23.
 IPart= 27 NShTot=        3750 NBatch=         150 AvBLen=        25.0
 PrsmSu-ThDecC:  IPartSL=   27    0 NPrtUSL=   48    1 IThBeg=    0 IThEnd=   47 CPU=   -1 GPU=   -1 NThAct=   22.
 IPart=  6 NShTot=        4500 NBatch=         180 AvBLen=        25.0
 PrsmSu-ThDecC:  IPartSL=    6    0 NPrtUSL=   48    1 IThBeg=    0 IThEnd=   47 CPU=   -1 GPU=   -1 NThAct=   21.
 IPart= 19 NShTot=        3900 NBatch=         156 AvBLen=        25.0
 IPart= 36 NShTot=        3675 NBatch=         147 AvBLen=        25.0
 IPart= 39 NShTot=        3650 NBatch=         146 AvBLen=        25.0
 IPart= 22 NShTot=        3850 NBatch=         154 AvBLen=        25.0
 IPart=  7 NShTot=        4375 NBatch=         175 AvBLen=        25.0
 IPart= 21 NShTot=        3875 NBatch=         155 AvBLen=        25.0
 PrsmSu-ThDecC:  IPartSL=   19    0 NPrtUSL=   48    1 IThBeg=    0 IThEnd=   47 CPU=   -1 GPU=   -1 NThAct=   20.
 PrsmSu-ThDecC:  IPartSL=   39    0 NPrtUSL=   48    1 IThBeg=    0 IThEnd=   47 CPU=   -1 GPU=   -1 NThAct=   19.
 PrsmSu-ThDecC:  IPartSL=    7    0 NPrtUSL=   48    1 IThBeg=    0 IThEnd=   47 CPU=   -1 GPU=   -1 NThAct=   18.
 PrsmSu-ThDecC:  IPartSL=   21    0 NPrtUSL=   48    1 IThBeg=    0 IThEnd=   47 CPU=   -1 GPU=   -1 NThAct=   17.
 PrsmSu-ThDecC:  IPartSL=   22    0 NPrtUSL=   48    1 IThBeg=    0 IThEnd=   47 CPU=   -1 GPU=   -1 NThAct=   16.
 PrsmSu-ThDecC:  IPartSL=   36    0 NPrtUSL=   48    1 IThBeg=    0 IThEnd=   47 CPU=   -1 GPU=   -1 NThAct=   15.
 IPart=  4 NShTot=        4600 NBatch=         184 AvBLen=        25.0
 PrsmSu-ThDecC:  IPartSL=    4    0 NPrtUSL=   48    1 IThBeg=    0 IThEnd=   47 CPU=   -1 GPU=   -1 NThAct=   14.
 IPart= 14 NShTot=        3950 NBatch=         158 AvBLen=        25.0
 PrsmSu-ThDecC:  IPartSL=   14    0 NPrtUSL=   48    1 IThBeg=    0 IThEnd=   47 CPU=   -1 GPU=   -1 NThAct=   13.
 IPart= 11 NShTot=        4150 NBatch=         166 AvBLen=        25.0
 PrsmSu-ThDecC:  IPartSL=   11    0 NPrtUSL=   48    1 IThBeg=    0 IThEnd=   47 CPU=   -1 GPU=   -1 NThAct=   12.
 IPart= 28 NShTot=        3750 NBatch=         150 AvBLen=        25.0
 PrsmSu-ThDecC:  IPartSL=   28    0 NPrtUSL=   48    1 IThBeg=    0 IThEnd=   47 CPU=   -1 GPU=   -1 NThAct=   11.
 IPart= 37 NShTot=        3650 NBatch=         146 AvBLen=        25.0
 PrsmSu-ThDecC:  IPartSL=   37    0 NPrtUSL=   48    1 IThBeg=    0 IThEnd=   47 CPU=   -1 GPU=   -1 NThAct=   10.
 IPart= 35 NShTot=        3675 NBatch=         147 AvBLen=        25.0
 PrsmSu-ThDecC:  IPartSL=   35    0 NPrtUSL=   48    1 IThBeg=    0 IThEnd=   47 CPU=   -1 GPU=   -1 NThAct=    9.
 IPart= 41 NShTot=        3600 NBatch=         144 AvBLen=        25.0
 PrsmSu-ThDecC:  IPartSL=   41    0 NPrtUSL=   48    1 IThBeg=    0 IThEnd=   47 CPU=   -1 GPU=   -1 NThAct=    8.
 IPart= 30 NShTot=        3725 NBatch=         149 AvBLen=        25.0
 PrsmSu-ThDecC:  IPartSL=   30    0 NPrtUSL=   48    1 IThBeg=    0 IThEnd=   47 CPU=   -1 GPU=   -1 NThAct=    7.
 IPart= 16 NShTot=        3925 NBatch=         157 AvBLen=        25.0
 PrsmSu-ThDecC:  IPartSL=   16    0 NPrtUSL=   48    1 IThBeg=    0 IThEnd=   47 CPU=   -1 GPU=   -1 NThAct=    6.
 IPart= 10 NShTot=        4200 NBatch=         168 AvBLen=        25.0
 PrsmSu-ThDecC:  IPartSL=   10    0 NPrtUSL=   48    1 IThBeg=    0 IThEnd=   47 CPU=   -1 GPU=   -1 NThAct=    5.
 IPart= 15 NShTot=        3950 NBatch=         158 AvBLen=        25.0
 PrsmSu-ThDecC:  IPartSL=   15    0 NPrtUSL=   48    1 IThBeg=    0 IThEnd=   47 CPU=   -1 GPU=   -1 NThAct=    4.
 IPart= 12 NShTot=        4075 NBatch=         163 AvBLen=        25.0
 PrsmSu-ThDecC:  IPartSL=   12    0 NPrtUSL=   48    1 IThBeg=    0 IThEnd=   47 CPU=   -1 GPU=   -1 NThAct=    3.
 IPart=  3 NShTot=        4625 NBatch=         185 AvBLen=        25.0
 PrsmSu-ThDecC:  IPartSL=    3    0 NPrtUSL=   48    1 IThBeg=    0 IThEnd=   47 CPU=   -1 GPU=   -1 NThAct=    2.
 IPart=  1 NShTot=        4750 NBatch=         190 AvBLen=        25.0
 PrsmSu-ThDecC:  IPartSL=    1    0 NPrtUSL=   48    1 IThBeg=    0 IThEnd=   47 CPU=   -1 GPU=   -1 NThAct=    1.
 PrSmSu:  NxtVal=           1873.
 --------------------------------------------------------
       Center         ----      EFG at Nuclei      ----
                      3XX-RR        3YY-RR        3ZZ-RR
 --------------------------------------------------------
     1   Atom        0.031144     -0.054997      0.023853
     2   Atom        0.088950      0.024813     -0.113763
     3   Atom        0.022044      0.140070     -0.162113
     4   Atom       -0.007548      0.371815     -0.364267
     5   Atom        0.525119      0.429242     -0.954361
     6   Atom       -1.524840      0.480100      1.044740
     7   Atom       -0.075099      0.081804     -0.006705
     8   Atom       -0.015204     -0.090910      0.106114
     9   Atom        0.064850      0.036436     -0.101286
    10   Atom        0.118252     -0.275648      0.157395
    11   Atom       -0.007776     -0.071995      0.079771
    12   Atom       -0.156747     -0.113647      0.270394
    13   Atom        0.118572     -0.116542     -0.002029
    14   Atom       -0.147866      0.058503      0.089364
    15   Atom       -0.275265      0.479159     -0.203894
    16   Atom        0.193014      0.004374     -0.197388
    17   Atom        0.142371     -0.162292      0.019921
    18   Atom        0.637207     -0.325324     -0.311883
    19   Atom       -0.066574     -0.105064      0.171638
    20   Atom       -0.193742      0.146218      0.047524
    21   Atom        0.147847      0.016823     -0.164670
    22   Atom        0.101866      0.029821     -0.131687
    23   Atom       -0.078947      0.178939     -0.099992
    24   Atom       -0.026511      0.166816     -0.140305
    25   Atom        0.143314      0.177424     -0.320738
 --------------------------------------------------------
                        XY            XZ            YZ
 --------------------------------------------------------
     1   Atom       -0.069984     -0.048955     -0.069805
     2   Atom       -0.041281      0.220447     -0.027016
     3   Atom       -0.010462      0.289273      0.019992
     4   Atom        0.127393      0.003177     -0.013717
     5   Atom       -1.193712     -0.001577      0.006317
     6   Atom       -0.264359      0.010603      0.033232
     7   Atom       -0.130385      0.193441      0.101856
     8   Atom        0.200599      0.088524     -0.112796
     9   Atom        0.099445     -0.158091      0.164473
    10   Atom        0.136199     -0.024395      0.057513
    11   Atom       -0.191290     -0.123688     -0.141736
    12   Atom       -0.361492      0.012856      0.013446
    13   Atom       -0.140232      0.047562      0.190686
    14   Atom       -0.099680     -0.105467      0.222119
    15   Atom        0.081164     -0.072344      0.001440
    16   Atom       -0.022890     -0.120448      0.027950
    17   Atom       -0.042357      0.102317     -0.022260
    18   Atom       -0.159350     -0.315234      0.059084
    19   Atom        0.004875      0.101154     -0.016801
    20   Atom        0.082526     -0.204230      0.032996
    21   Atom       -0.034802     -0.064437     -0.222194
    22   Atom       -0.068248     -0.120126     -0.207916
    23   Atom        0.021669      0.233118     -0.014757
    24   Atom        0.041137     -0.226175      0.048072
    25   Atom        0.005151     -0.008795      0.000472
 --------------------------------------------------------


 ---------------------------------------------------------------------------------
              Nuclear Quadrupole Coupling Constant in Principal Axis System
 ---------------------------------------------------------------------------------

       Atom             a.u.   MegaHertz   Gauss  10(-4) cm-1        Axes

              Baa    -0.3264     1.567     0.559     0.523  0.8572 -0.0873  0.5075
    15 N(14)  Bbb    -0.1615     0.776     0.277     0.259 -0.5037  0.0619  0.8616
              Bcc     0.4878    -2.343    -0.836    -0.782  0.1066  0.9943 -0.0091
 
              Baa    -0.4089     1.964     0.701     0.655  0.2591 -0.1771  0.9495
    18 N(14)  Bbb    -0.3500     1.681     0.600     0.561  0.1976  0.9720  0.1274
              Bcc     0.7589    -3.645    -1.301    -1.216  0.9454 -0.1546 -0.2869
 

 ---------------------------------------------------------------------------------

 No NMR shielding tensors so no spin-rotation constants.
 Leave Link  601 at Thu Apr 21 10:56:01 2022, MaxMem= 25769803776 cpu:              12.1 elap:               0.3
 Calling FoFJK, ICntrl=      2127 FMM=F ISym2X=0 I1Cent= 0 IOpClX= 0 NMat=1 NMatS=1 NMatT=0.
 ***** Axes restored to original set *****
 -------------------------------------------------------------------
 Center     Atomic                   Forces (Hartrees/Bohr)
 Number     Number              X              Y              Z
 -------------------------------------------------------------------
      1        6           0.020864079    0.010339037   -0.019800430
      2        6          -0.015094193   -0.028152114    0.011834403
      3        6          -0.005341054   -0.000079795   -0.005309548
      4        6           0.020787056    0.022380790    0.004277196
      5        8          -0.005323579   -0.004794639    0.001166855
      6        8           0.008066939    0.008205110   -0.026731439
      7        1           0.004110722   -0.000902564   -0.001645281
      8        1          -0.000819015    0.004767323    0.002113614
      9        1          -0.013618494   -0.000182288    0.007349825
     10        1          -0.002709965   -0.001139804    0.004280123
     11        1           0.003766488    0.001735346   -0.000188319
     12        1          -0.017383561   -0.012710070    0.026215674
     13        6           0.016820941    0.021791118    0.012090703
     14        6          -0.000915115    0.002962127    0.002206310
     15        7           0.010697126   -0.029903658    0.005899928
     16        6           0.002966845   -0.023408706   -0.011617838
     17        6           0.002773245    0.002303714   -0.000878593
     18        7           0.013410188    0.018915416    0.031906404
     19        6          -0.036670018    0.013064925   -0.033173792
     20        1           0.001216193   -0.004966656    0.010459250
     21        1          -0.002472985   -0.003503311   -0.007056348
     22        1          -0.006578038    0.002546319   -0.010358060
     23        1          -0.001836502    0.002029066   -0.002665733
     24        1           0.005116652   -0.000129888    0.004922707
     25        1          -0.001833954   -0.001166800   -0.005297611
 -------------------------------------------------------------------
 Cartesian Forces:  Max     0.036670018 RMS     0.013055225

 GradGradGradGradGradGradGradGradGradGradGradGradGradGradGradGradGradGrad
 Berny optimization.
 FormGI is forming the generalized inverse of G from B-inverse, IUseBI=4.
 Internal  Forces:  Max     0.027947488 RMS     0.008565927
 Search for a local minimum.
 Step number   1 out of a maximum of  120
 All quantities printed in internal units (Hartrees-Bohrs-Radians)
 Mixed Optimization -- RFO/linear search
 Second derivative matrix not updated -- first step.
 ITU=  0
     Eigenvalues ---    0.00230   0.00230   0.00230   0.00230   0.01156
     Eigenvalues ---    0.01186   0.01455   0.01764   0.02047   0.02094
     Eigenvalues ---    0.02104   0.02148   0.02201   0.02375   0.02503
     Eigenvalues ---    0.02517   0.02925   0.02941   0.03233   0.03326
     Eigenvalues ---    0.03414   0.04026   0.06759   0.07870   0.10123
     Eigenvalues ---    0.15855   0.15966   0.15999   0.16000   0.16000
     Eigenvalues ---    0.16000   0.16000   0.16000   0.16000   0.16000
     Eigenvalues ---    0.16000   0.16000   0.20928   0.22009   0.23108
     Eigenvalues ---    0.24976   0.24980   0.24981   0.24996   0.25000
     Eigenvalues ---    0.27749   0.34730   0.34746   0.34848   0.35682
     Eigenvalues ---    0.35875   0.35880   0.35931   0.35949   0.35963
     Eigenvalues ---    0.36016   0.36017   0.36018   0.43057   0.43686
     Eigenvalues ---    0.46542   0.48315   0.51851   0.53892   0.57298
     Eigenvalues ---    0.57931   0.58842   0.63578   1.00568
 RFO step:  Lambda=-2.94835039D-02 EMin= 2.30000000D-03
 Linear search not attempted -- first point.
 Maximum step size (   0.300) exceeded in Quadratic search.
    -- Step size scaled by   0.885
 Iteration  1 RMS(Cart)=  0.12244890 RMS(Int)=  0.00339850
 Iteration  2 RMS(Cart)=  0.01122488 RMS(Int)=  0.00039416
 Iteration  3 RMS(Cart)=  0.00004352 RMS(Int)=  0.00039361
 Iteration  4 RMS(Cart)=  0.00000001 RMS(Int)=  0.00039361
 Variable       Old X    -DE/DX   Delta X   Delta X   Delta X     New X
                                 (Linear)    (Quad)   (Total)
    R1        2.92690  -0.01441   0.00000  -0.04154  -0.04154   2.88536
    R2        2.05923   0.00014   0.00000   0.00033   0.00033   2.05956
    R3        2.06116  -0.00149   0.00000  -0.00350  -0.00350   2.05766
    R4        2.06090   0.00088   0.00000   0.00206   0.00206   2.06296
    R5        2.52616   0.00047   0.00000   0.00069   0.00069   2.52685
    R6        2.77882   0.01501   0.00000   0.03439   0.03439   2.81321
    R7        2.04277   0.00306   0.00000   0.00698   0.00698   2.04975
    R8        2.04057   0.00231   0.00000   0.00524   0.00524   2.04581
    R9        2.28412  -0.00387   0.00000  -0.00330  -0.00330   2.28082
   R10        2.58042  -0.00796   0.00000  -0.01286  -0.01286   2.56756
   R11        1.78566   0.02795   0.00000   0.03993   0.03994   1.82560
   R12        4.05517  -0.00406   0.00000  -0.05607  -0.05607   3.99909
   R13        2.48216   0.02237   0.00000   0.02976   0.02976   2.51192
   R14        2.04055   0.00354   0.00000   0.00804   0.00804   2.04858
   R15        2.04053   0.00116   0.00000   0.00264   0.00264   2.04317
   R16        2.63525   0.01814   0.00000   0.03243   0.03243   2.66768
   R17        2.04269   0.00145   0.00000   0.00331   0.00331   2.04601
   R18        2.61099   0.01077   0.00000   0.02275   0.02235   2.63333
   R19        2.51367   0.02637   0.00000   0.04070   0.04065   2.55432
   R20        2.61479  -0.01787   0.00000  -0.03245  -0.03263   2.58217
   R21        2.04162  -0.00367   0.00000  -0.00836  -0.00836   2.03326
   R22        2.62208   0.00450   0.00000   0.00254   0.00283   2.62491
   R23        2.04140  -0.00103   0.00000  -0.00235  -0.00235   2.03905
   R24        2.54016  -0.02276   0.00000  -0.03518  -0.03482   2.50534
   R25        2.04190   0.00043   0.00000   0.00099   0.00099   2.04289
    A1        2.00960  -0.01028   0.00000  -0.04817  -0.04794   1.96166
    A2        1.88767   0.00280   0.00000   0.00776   0.00699   1.89466
    A3        1.79793   0.02223   0.00000   0.10899   0.10887   1.90680
    A4        1.91168   0.00127   0.00000  -0.00243  -0.00279   1.90888
    A5        1.87539  -0.00439   0.00000  -0.00998  -0.00915   1.86624
    A6        1.98193  -0.01159   0.00000  -0.05508  -0.05622   1.92571
    A7        2.12287   0.00355   0.00000   0.01139   0.01137   2.13424
    A8        2.16181  -0.01507   0.00000  -0.04759  -0.04762   2.11419
    A9        1.99753   0.01155   0.00000   0.03676   0.03674   2.03427
   A10        2.14384  -0.00317   0.00000  -0.01429  -0.01445   2.12939
   A11        2.12581  -0.00148   0.00000  -0.00639  -0.00655   2.11926
   A12        2.01116   0.00478   0.00000   0.02286   0.02270   2.03385
   A13        2.17284  -0.00164   0.00000  -0.00510  -0.00514   2.16770
   A14        2.07410  -0.01070   0.00000  -0.03373  -0.03378   2.04032
   A15        2.03593   0.01236   0.00000   0.03925   0.03921   2.07513
   A16        2.08250  -0.01481   0.00000  -0.06913  -0.06913   2.01337
   A17        2.02080   0.01011   0.00000   0.05107   0.04945   2.07025
   A18        2.24650  -0.01278   0.00000  -0.05584  -0.05746   2.18904
   A19        2.00170   0.00379   0.00000   0.02158   0.01995   2.02165
   A20        2.11818   0.01278   0.00000   0.04543   0.04541   2.16359
   A21        2.06745   0.00382   0.00000   0.02529   0.02529   2.09274
   A22        2.09413  -0.01653   0.00000  -0.06994  -0.06997   2.02416
   A23        2.16304   0.00932   0.00000   0.02308   0.02328   2.18632
   A24        2.27224  -0.01453   0.00000  -0.05250  -0.05233   2.21991
   A25        1.84739   0.00522   0.00000   0.02961   0.02923   1.87661
   A26        1.84593  -0.00395   0.00000  -0.00965  -0.01026   1.83567
   A27        2.13501   0.00164   0.00000   0.00391   0.00404   2.13904
   A28        2.29714   0.00246   0.00000   0.00812   0.00832   2.30546
   A29        1.93954   0.00013   0.00000  -0.01345  -0.01334   1.92620
   A30        2.28630  -0.00719   0.00000  -0.02655  -0.02663   2.25967
   A31        2.05735   0.00706   0.00000   0.04002   0.03994   2.09729
   A32        1.90871  -0.00763   0.00000  -0.01285  -0.01294   1.89577
   A33        2.15640  -0.00615   0.00000  -0.01771  -0.01827   2.13814
   A34        1.77836   0.01774   0.00000   0.05905   0.05937   1.83772
   A35        2.01300  -0.01910   0.00000  -0.06490  -0.06459   1.94841
   A36        2.06756   0.01531   0.00000   0.05934   0.05918   2.12674
   A37        2.20257   0.00379   0.00000   0.00555   0.00540   2.20797
   A38        3.27024   0.00516   0.00000   0.10573   0.10588   3.37612
   A39        3.14257  -0.00193   0.00000  -0.04539  -0.04541   3.09716
    D1        1.48224  -0.00112   0.00000   0.00878   0.00915   1.49139
    D2       -1.60928  -0.00205   0.00000  -0.00692  -0.00633  -1.61561
    D3       -0.66203   0.00220   0.00000   0.03937   0.03958  -0.62244
    D4        2.52964   0.00127   0.00000   0.02367   0.02411   2.55375
    D5       -2.76506   0.00274   0.00000   0.04277   0.04185  -2.72322
    D6        0.42660   0.00181   0.00000   0.02707   0.02638   0.45297
    D7        0.03972  -0.00127   0.00000  -0.02406  -0.02429   0.01543
    D8        3.10365   0.00116   0.00000   0.01246   0.01223   3.11589
    D9        3.13565  -0.00113   0.00000  -0.01196  -0.01173   3.12391
   D10       -0.08361   0.00130   0.00000   0.02456   0.02480  -0.05881
   D11       -2.58776   0.00063   0.00000   0.01141   0.01129  -2.57647
   D12        0.58206  -0.00040   0.00000  -0.00797  -0.00796   0.57410
   D13        0.60066  -0.00010   0.00000  -0.00282  -0.00284   0.59782
   D14       -2.51270  -0.00112   0.00000  -0.02220  -0.02209  -2.53479
   D15        0.00823   0.00183   0.00000   0.03353   0.03367   0.04190
   D16       -3.10733   0.00108   0.00000   0.01626   0.01612  -3.09121
   D17        1.80785  -0.00588   0.00000  -0.01379  -0.01438   1.79347
   D18       -2.41983   0.00596   0.00000   0.01485   0.01545  -2.40438
   D19        2.96509   0.00947   0.00000   0.13189   0.13177   3.09686
   D20       -0.26530   0.00953   0.00000   0.13830   0.13852  -0.12678
   D21        0.01504   0.00122   0.00000   0.01559   0.01537   0.03040
   D22        3.06783   0.00128   0.00000   0.02200   0.02212   3.08996
   D23        0.64316  -0.00089   0.00000  -0.02056  -0.02065   0.62251
   D24       -2.53812  -0.00038   0.00000  -0.01264  -0.01291  -2.55103
   D25       -2.40830  -0.00200   0.00000  -0.03195  -0.03168  -2.43998
   D26        0.69361  -0.00148   0.00000  -0.02403  -0.02394   0.66967
   D27        3.09813   0.00104   0.00000   0.02093   0.02122   3.11935
   D28        0.05341  -0.00050   0.00000  -0.00193  -0.00150   0.05191
   D29       -0.01195   0.00106   0.00000   0.01630   0.01639   0.00444
   D30       -3.05667  -0.00047   0.00000  -0.00655  -0.00633  -3.06300
   D31       -3.11620  -0.00087   0.00000  -0.01247  -0.01223  -3.12843
   D32        0.03540  -0.00093   0.00000  -0.01137  -0.01111   0.02429
   D33       -0.00884  -0.00026   0.00000  -0.00539  -0.00535  -0.01419
   D34       -3.14043  -0.00032   0.00000  -0.00429  -0.00423   3.13853
   D35        0.02828  -0.00168   0.00000  -0.02259  -0.02210   0.00618
   D36       -3.11575  -0.00113   0.00000  -0.01226  -0.01209  -3.12784
   D37        3.06033  -0.00007   0.00000   0.00275   0.00319   3.06352
   D38       -0.08370   0.00049   0.00000   0.01308   0.01320  -0.07050
   D39        2.27667   0.00063   0.00000   0.02714   0.02742   2.30409
   D40       -0.03196   0.00092   0.00000   0.01716   0.01746  -0.01450
   D41       -0.86284   0.00018   0.00000   0.01842   0.01858  -0.84427
   D42        3.11171   0.00047   0.00000   0.00843   0.00861   3.12032
   D43       -2.12352  -0.00241   0.00000  -0.03256  -0.03231  -2.15583
   D44        1.00717  -0.00228   0.00000  -0.03345  -0.03317   0.97400
   D45        0.02509  -0.00067   0.00000  -0.00756  -0.00757   0.01752
   D46       -3.12740  -0.00054   0.00000  -0.00845  -0.00843  -3.13583
         Item               Value     Threshold  Converged?
 Maximum Force            0.027947     0.000450     NO 
 RMS     Force            0.008566     0.000300     NO 
[...]
 **** Fit      -0.022226
 **** Fit      -0.009250
 **** Fit      -0.010736
 **** Fit      -0.012664
 **** Fit      -0.015141
 **** Fit      -0.018268
 **** Fit      -0.022145
 **** Fit      -0.026872
 **** Fit      -0.032537
 **** Fit      -0.039167
 **** Fit      -0.046618
 **** Fit      -0.054423
 **** Fit      -0.061681
 **** Fit      -0.067132
 **** Fit      -0.069580
 **** Fit      -0.068477
 **** Fit      -0.064225
 **** Fit      -0.057941
 **** Fit      -0.050896
 **** Fit      -0.044073
 **** Fit      -0.038010
 **** Fit      -0.032883
 **** Fit      -0.028652
 **** Fit      -0.010087
 **** Fit      -0.011702
 **** Fit      -0.013784
 **** Fit      -0.016452
 **** Fit      -0.019832
 **** Fit      -0.024063
 **** Fit      -0.029304
 **** Fit      -0.035732
 **** Fit      -0.043475
 **** Fit      -0.052469
 **** Fit      -0.062202
 **** Fit      -0.071503
 **** Fit      -0.078640
 **** Fit      -0.080696
 **** Fit      -0.075438
 **** Fit      -0.067656
 **** Fit      -0.058998
 **** Fit      -0.050691
 **** Fit      -0.043374
 **** Fit      -0.037225
 **** Fit      -0.012758
 **** Fit      -0.014996
 **** Fit      -0.017848
 **** Fit      -0.021462
 **** Fit      -0.026014
 **** Fit      -0.031724
 **** Fit      -0.038850
 **** Fit      -0.047606
 **** Fit      -0.057961
 **** Fit      -0.069287
 **** Fit      -0.076038
 **** Fit      -0.066148
 **** Fit      -0.056599
 **** Fit      -0.048188
 **** Fit      -0.041135
 **** Fit      -0.033911
 **** Fit      -0.041538
 **** Fit      -0.050974
 **** Fit      -0.062135
 **** Fit      -0.071382
 **** Fit      -0.061166
 **** Fit      -0.052031
 **** Fit      -0.044326
 **** Fit      -0.037994
 **** Fit      -0.029410
 **** Fit      -0.035649
 **** Fit      -0.043484
 **** Fit      -0.053129
 **** Fit      -0.064387
 **** Fit      -0.074279
 **** Fit      -0.064013
 **** Fit      -0.054612
 **** Fit      -0.046585
 **** Fit      -0.039941
 **** Fit      -0.030575
 **** Fit      -0.036789
 **** Fit      -0.044519
 **** Fit      -0.053920
 **** Fit      -0.064720
 **** Fit      -0.074978
 **** Fit      -0.065065
 **** Fit      -0.055812
 **** Fit      -0.047804
 **** Fit      -0.041106
 **** Fit      -0.037272
 **** Fit      -0.044628
 **** Fit      -0.053440
 **** Fit      -0.063445
 **** Fit      -0.073703
 **** Fit      -0.073731
 **** Fit      -0.064420
 **** Fit      -0.055656
 **** Fit      -0.047977
 **** Fit      -0.041472
 **** Fit      -0.037119
 **** Fit      -0.043902
 **** Fit      -0.051888
 **** Fit      -0.060864
 **** Fit      -0.070139
 **** Fit      -0.078654
 **** Fit      -0.070700
 **** Fit      -0.062267
 **** Fit      -0.054285
 **** Fit      -0.047192
 **** Fit      -0.036405
 **** Fit      -0.042492
 **** Fit      -0.049514
 **** Fit      -0.057288
 **** Fit      -0.065313
 **** Fit      -0.072715
 **** Fit      -0.078434
 **** Fit      -0.081555
 **** Fit      -0.081577
 **** Fit      -0.078546
 **** Fit      -0.073085
 **** Fit      -0.066207
 **** Fit      -0.058920
 **** Fit      -0.051934
 **** Fit      -0.045610
 **** Fit      -0.040576
 **** Fit      -0.046591
 **** Fit      -0.053110
 **** Fit      -0.059742
 **** Fit      -0.065841
 **** Fit      -0.070587
 **** Fit      -0.073212
 **** Fit      -0.073274
 **** Fit      -0.070832
 **** Fit      -0.066420
 **** Fit      -0.060827
 **** Fit      -0.054808
 **** Fit      -0.048908
 **** Fit      -0.043385
 **** Fit      -0.048723
 **** Fit      -0.054032
 **** Fit      -0.058834
 **** Fit      -0.062541
 **** Fit      -0.064607
 **** Fit      -0.064713
 **** Fit      -0.062899
 **** Fit      -0.059538
 **** Fit      -0.055178
 **** Fit      -0.050364
 **** Fit      -0.045515
 **** Fit      -0.044421
 **** Fit      -0.048604
 **** Fit      -0.052308
 **** Fit      -0.055132
 **** Fit      -0.056713
 **** Fit      -0.056841
 **** Fit      -0.055538
 **** Fit      -0.053041
 **** Fit      -0.049713
 **** Fit      -0.046506
 **** Fit      -0.048650
 **** Fit      -0.049854
 **** Fit      -0.049985
 **** Fit      -0.049052
 **** Fit      -0.047204
 **** Fit      -0.012608
 **** Fit      -0.011809
 **** Fit      -0.010966
 **** Fit      -0.010153
 **** Fit      -0.015921
 **** Fit      -0.015044
 **** Fit      -0.013998
 **** Fit      -0.012895
 **** Fit      -0.011839
 **** Fit      -0.010898
 **** Fit      -0.010105
 **** Fit      -0.019703
 **** Fit      -0.018966
 **** Fit      -0.017868
 **** Fit      -0.016546
 **** Fit      -0.015149
 **** Fit      -0.013811
 **** Fit      -0.012627
 **** Fit      -0.011632
 **** Fit      -0.023581
 **** Fit      -0.023314
 **** Fit      -0.022462
 **** Fit      -0.021144
 **** Fit      -0.019528
 **** Fit      -0.017806
 **** Fit      -0.016151
 **** Fit      -0.014681
 **** Fit      -0.013445
 **** Fit      -0.012429
 **** Fit      -0.027601
 **** Fit      -0.027410
 **** Fit      -0.026484
 **** Fit      -0.024961
 **** Fit      -0.023044
 **** Fit      -0.020969
 **** Fit      -0.018955
 **** Fit      -0.017149
 **** Fit      -0.015612
 **** Fit      -0.014335
 **** Fit      -0.032123
 **** Fit      -0.032097
 **** Fit      -0.031157
 **** Fit      -0.029450
 **** Fit      -0.027219
 **** Fit      -0.024753
 **** Fit      -0.022319
 **** Fit      -0.020105
 **** Fit      -0.018190
 **** Fit      -0.016576
 **** Fit      -0.037309
 **** Fit      -0.037560
 **** Fit      -0.036663
 **** Fit      -0.034773
 **** Fit      -0.032184
 **** Fit      -0.029251
 **** Fit      -0.026307
 **** Fit      -0.023583
 **** Fit      -0.021193
 **** Fit      -0.019152
 **** Fit      -0.038242
 **** Fit      -0.041359
 **** Fit      -0.043392
 **** Fit      -0.044041
 **** Fit      -0.043219
 **** Fit      -0.041093
 **** Fit      -0.038034
 **** Fit      -0.034499
 **** Fit      -0.030907
 **** Fit      -0.027550
 **** Fit      -0.024575
 **** Fit      -0.022016
 **** Fit      -0.033790
 **** Fit      -0.038735
 **** Fit      -0.043536
 **** Fit      -0.047673
 **** Fit      -0.050561
 **** Fit      -0.051716
 **** Fit      -0.050951
 **** Fit      -0.048460
 **** Fit      -0.044744
 **** Fit      -0.040414
 **** Fit      -0.036007
 **** Fit      -0.031883
 **** Fit      -0.028223
 **** Fit      -0.031893
 **** Fit      -0.037428
 **** Fit      -0.043405
 **** Fit      -0.049415
 **** Fit      -0.054793
 **** Fit      -0.058713
 **** Fit      -0.060442
 **** Fit      -0.059665
 **** Fit      -0.056637
 **** Fit      -0.052053
 **** Fit      -0.046734
 **** Fit      -0.041361
 **** Fit      -0.036368
 **** Fit      -0.034743
 **** Fit      -0.041115
 **** Fit      -0.048178
 **** Fit      -0.055472
 **** Fit      -0.062167
 **** Fit      -0.067157
 **** Fit      -0.069438
 **** Fit      -0.068571
 **** Fit      -0.064904
 **** Fit      -0.059353
 **** Fit      -0.052970
 **** Fit      -0.046589
 **** Fit      -0.040713
 **** Fit      -0.031348
 **** Fit      -0.037404
 **** Fit      -0.044514
 **** Fit      -0.052527
 **** Fit      -0.060927
 **** Fit      -0.068714
 **** Fit      -0.074547
 **** Fit      -0.077228
 **** Fit      -0.076262
 **** Fit      -0.072075
 **** Fit      -0.065737
 **** Fit      -0.058464
 **** Fit      -0.051222
 **** Fit      -0.044579
 **** Fit      -0.038770
 **** Fit      -0.033184
 **** Fit      -0.039619
 **** Fit      -0.047225
 **** Fit      -0.055843
 **** Fit      -0.064887
 **** Fit      -0.073231
 **** Fit      -0.079425
 **** Fit      -0.081299
 **** Fit      -0.076971
 **** Fit      -0.070316
 **** Fit      -0.062581
 **** Fit      -0.054812
 **** Fit      -0.047653
 **** Fit      -0.041379
 **** Fit      -0.034580
 **** Fit      -0.041168
 **** Fit      -0.048937
 **** Fit      -0.057697
 **** Fit      -0.066807
 **** Fit      -0.075097
 **** Fit      -0.079102
 **** Fit      -0.072649
 **** Fit      -0.064947
 **** Fit      -0.057064
 **** Fit      -0.049712
 **** Fit      -0.043216
 **** Fit      -0.035434
 **** Fit      -0.041932
 **** Fit      -0.049528
 **** Fit      -0.058001
 **** Fit      -0.066709
 **** Fit      -0.074545
 **** Fit      -0.078801
 **** Fit      -0.072838
 **** Fit      -0.065523
 **** Fit      -0.057887
 **** Fit      -0.050656
 **** Fit      -0.044193
 **** Fit      -0.035713
 **** Fit      -0.041910
 **** Fit      -0.049059
 **** Fit      -0.056934
 **** Fit      -0.064951
 **** Fit      -0.072153
 **** Fit      -0.077464
 **** Fit      -0.080095
 **** Fit      -0.079752
 **** Fit      -0.076594
 **** Fit      -0.071200
 **** Fit      -0.064475
 **** Fit      -0.057351
 **** Fit      -0.050508
 **** Fit      -0.044308
 **** Fit      -0.041183
 **** Fit      -0.047700
 **** Fit      -0.054779
 **** Fit      -0.061929
 **** Fit      -0.068368
 **** Fit      -0.073199
 **** Fit      -0.075694
 **** Fit      -0.075517
 **** Fit      -0.072786
 **** Fit      -0.068031
 **** Fit      -0.062047
 **** Fit      -0.055634
 **** Fit      -0.049384
 **** Fit      -0.043634
 **** Fit      -0.039881
 **** Fit      -0.045662
 **** Fit      -0.051841
 **** Fit      -0.058016
 **** Fit      -0.063570
 **** Fit      -0.067781
 **** Fit      -0.070021
 **** Fit      -0.069967
 **** Fit      -0.067703
 **** Fit      -0.063680
 **** Fit      -0.058558
 **** Fit      -0.052989
 **** Fit      -0.047468
 **** Fit      -0.043166
 **** Fit      -0.048426
 **** Fit      -0.053603
 **** Fit      -0.058223
 **** Fit      -0.061730
 **** Fit      -0.063633
 **** Fit      -0.063665
 **** Fit      -0.061881
 **** Fit      -0.058625
 **** Fit      -0.054402
 **** Fit      -0.049722
 **** Fit      -0.044985
 **** Fit      -0.044809
 **** Fit      -0.049055
 **** Fit      -0.052794
 **** Fit      -0.055619
 **** Fit      -0.057172
 **** Fit      -0.057257
 **** Fit      -0.055904
 **** Fit      -0.053354
 **** Fit      -0.049971
 **** Fit      -0.046136
 **** Fit      -0.044639
 **** Fit      -0.047621
 **** Fit      -0.049856
 **** Fit      -0.051097
 **** Fit      -0.051206
 **** Fit      -0.050200
 **** Fit      -0.048238
 **** Fit      -0.016650
 **** Fit      -0.015538
 **** Fit      -0.020623
 **** Fit      -0.019410
 **** Fit      -0.018054
 **** Fit      -0.016680
 **** Fit      -0.015379
 **** Fit      -0.025116
 **** Fit      -0.024034
 **** Fit      -0.022600
 **** Fit      -0.020975
 **** Fit      -0.019311
 **** Fit      -0.017724
 **** Fit      -0.029178
 **** Fit      -0.027962
 **** Fit      -0.026289
 **** Fit      -0.024358
 **** Fit      -0.022355
 **** Fit      -0.020428
 **** Fit      -0.033841
 **** Fit      -0.032482
 **** Fit      -0.030533
 **** Fit      -0.028239
 **** Fit      -0.025833
 **** Fit      -0.023496
 **** Fit      -0.037528
 **** Fit      -0.039142
 **** Fit      -0.039711
 **** Fit      -0.039174
 **** Fit      -0.037639
 **** Fit      -0.035348
 **** Fit      -0.032607
 **** Fit      -0.029711
 **** Fit      -0.039476
 **** Fit      -0.042615
 **** Fit      -0.044779
 **** Fit      -0.045664
 **** Fit      -0.045158
 **** Fit      -0.043383
 **** Fit      -0.040653
 **** Fit      -0.037363
 **** Fit      -0.039605
 **** Fit      -0.044133
 **** Fit      -0.048053
 **** Fit      -0.050844
 **** Fit      -0.052076
 **** Fit      -0.051572
 **** Fit      -0.049484
 **** Fit      -0.046220
 **** Fit      -0.042293
 **** Fit      -0.038162
 **** Fit      -0.037989
 **** Fit      -0.043392
 **** Fit      -0.048733
 **** Fit      -0.053449
 **** Fit      -0.056874
 **** Fit      -0.058440
 **** Fit      -0.057907
 **** Fit      -0.055465
 **** Fit      -0.051636
 **** Fit      -0.047052
 **** Fit      -0.042265
 **** Fit      -0.035125
 **** Fit      -0.040731
 **** Fit      -0.046758
 **** Fit      -0.052793
 **** Fit      -0.058182
 **** Fit      -0.062133
 **** Fit      -0.063966
 **** Fit      -0.063398
 **** Fit      -0.060656
 **** Fit      -0.056351
 **** Fit      -0.051213
 **** Fit      -0.045869
 **** Fit      -0.040745
 **** Fit      -0.036939
 **** Fit      -0.042890
 **** Fit      -0.049323
 **** Fit      -0.055795
 **** Fit      -0.061590
 **** Fit      -0.065848
 **** Fit      -0.067840
 **** Fit      -0.067273
 **** Fit      -0.064389
 **** Fit      -0.059830
 **** Fit      -0.054366
 **** Fit      -0.048668
 **** Fit      -0.043195
 **** Fit      -0.038188
 **** Fit      -0.044260
 **** Fit      -0.050813
 **** Fit      -0.057387
 **** Fit      -0.063256
 **** Fit      -0.067564
 **** Fit      -0.069607
 **** Fit      -0.069105
 **** Fit      -0.066284
 **** Fit      -0.061748
 **** Fit      -0.056245
 **** Fit      -0.050450
 **** Fit      -0.044842
 **** Fit      -0.038791
 **** Fit      -0.044752
 **** Fit      -0.051141
 **** Fit      -0.057507
 **** Fit      -0.063160
 **** Fit      -0.067312
 **** Fit      -0.069325
 **** Fit      -0.068943
 **** Fit      -0.066347
 **** Fit      -0.062064
 **** Fit      -0.056779
 **** Fit      -0.051136
 **** Fit      -0.045611
 **** Fit      -0.038746
 **** Fit      -0.044400
 **** Fit      -0.050399
 **** Fit      -0.056326
 **** Fit      -0.061566
 **** Fit      -0.065430
 **** Fit      -0.067360
 **** Fit      -0.067114
 **** Fit      -0.064827
 **** Fit      -0.060941
 **** Fit      -0.056059
 **** Fit      -0.050766
 **** Fit      -0.045515
 **** Fit      -0.038115
 **** Fit      -0.043322
 **** Fit      -0.048780
 **** Fit      -0.054122
 **** Fit      -0.058828
 **** Fit      -0.062317
 **** Fit      -0.064112
 **** Fit      -0.063990
 **** Fit      -0.062042
 **** Fit      -0.058632
 **** Fit      -0.054272
 **** Fit      -0.049472
 **** Fit      -0.044639
 **** Fit      -0.041676
 **** Fit      -0.046513
 **** Fit      -0.051196
 **** Fit      -0.055299
 **** Fit      -0.058354
 **** Fit      -0.059966
 **** Fit      -0.059939
 **** Fit      -0.058333
 **** Fit      -0.055436
 **** Fit      -0.051663
 **** Fit      -0.047441
 **** Fit      -0.043824
 **** Fit      -0.047834
 **** Fit      -0.051320
 **** Fit      -0.053917
 **** Fit      -0.055315
 **** Fit      -0.055353
 **** Fit      -0.054070
 **** Fit      -0.051680
 **** Fit      -0.048506
 **** Fit      -0.044289
 **** Fit      -0.047192
 **** Fit      -0.049349
 **** Fit      -0.050528
 **** Fit      -0.050606
 **** Fit      -0.049604
 **** Fit      -0.047678
 **** Fit      -0.045885
 **** Fit      -0.045983
 **** Fit      -0.039565
 **** Fit      -0.040252
 **** Fit      -0.039928
 **** Fit      -0.039220
 **** Fit      -0.042093
 **** Fit      -0.044106
 **** Fit      -0.045007
 **** Fit      -0.044695
 **** Fit      -0.043256
 **** Fit      -0.040934
 **** Fit      -0.038805
 **** Fit      -0.042724
 **** Fit      -0.046079
 **** Fit      -0.048469
 **** Fit      -0.049575
 **** Fit      -0.049262
 **** Fit      -0.047635
 **** Fit      -0.044987
 **** Fit      -0.041695
 **** Fit      -0.041416
 **** Fit      -0.045765
 **** Fit      -0.049524
 **** Fit      -0.052229
 **** Fit      -0.053503
 **** Fit      -0.053190
 **** Fit      -0.051406
 **** Fit      -0.048487
 **** Fit      -0.044862
 **** Fit      -0.040933
 **** Fit      -0.038624
 **** Fit      -0.043409
 **** Fit      -0.048037
 **** Fit      -0.052054
 **** Fit      -0.054960
 **** Fit      -0.056348
 **** Fit      -0.056048
 **** Fit      -0.054184
 **** Fit      -0.051110
 **** Fit      -0.047282
 **** Fit      -0.043124
 **** Fit      -0.039734
 **** Fit      -0.044609
 **** Fit      -0.049323
 **** Fit      -0.053417
 **** Fit      -0.056386
 **** Fit      -0.057826
 **** Fit      -0.057565
 **** Fit      -0.055722
 **** Fit      -0.052642
 **** Fit      -0.048773
 **** Fit      -0.044546
 **** Fit      -0.040167
 **** Fit      -0.044952
 **** Fit      -0.049561
 **** Fit      -0.053555
 **** Fit      -0.056460
 **** Fit      -0.057895
 **** Fit      -0.057698
 **** Fit      -0.055969
 **** Fit      -0.053022
 **** Fit      -0.049273
 **** Fit      -0.045135
 **** Fit      -0.039937
 **** Fit      -0.044480
 **** Fit      -0.048830
 **** Fit      -0.052587
 **** Fit      -0.055329
 **** Fit      -0.056714
 **** Fit      -0.056592
 **** Fit      -0.055040
 **** Fit      -0.052328
 **** Fit      -0.048827
 **** Fit      -0.044913
 **** Fit      -0.043314
 **** Fit      -0.047297
 **** Fit      -0.050726
 **** Fit      -0.053235
 **** Fit      -0.054533
 **** Fit      -0.054483
 **** Fit      -0.053140
 **** Fit      -0.050725
 **** Fit      -0.047557
 **** Fit      -0.043967
 **** Fit      -0.041610
 **** Fit      -0.045166
 **** Fit      -0.048214
 **** Fit      -0.050450
 **** Fit      -0.051631
 **** Fit      -0.051640
 **** Fit      -0.050511
 **** Fit      -0.048423
 **** Fit      -0.045636
 **** Fit      -0.045289
 **** Fit      -0.047236
 **** Fit      -0.048283
 **** Fit      -0.048333
 **** Fit      -0.047409
 **** Fit      -0.045646
 **** Fit      -0.041736
 **** Fit      -0.042544
 **** Fit      -0.042367
 **** Fit      -0.041264
 **** Fit      -0.042591
 **** Fit      -0.044500
 **** Fit      -0.045416
 **** Fit      -0.045251
 **** Fit      -0.044065
 **** Fit      -0.042048
 **** Fit      -0.041656
 **** Fit      -0.044506
 **** Fit      -0.046544
 **** Fit      -0.047537
 **** Fit      -0.047388
 **** Fit      -0.046161
 **** Fit      -0.044054
 **** Fit      -0.042700
 **** Fit      -0.045610
 **** Fit      -0.047699
 **** Fit      -0.048733
 **** Fit      -0.048611
 **** Fit      -0.047395
 **** Fit      -0.045279
 **** Fit      -0.042989
 **** Fit      -0.045854
 **** Fit      -0.047918
 **** Fit      -0.048956
 **** Fit      -0.048872
 **** Fit      -0.047717
 **** Fit      -0.045673
 **** Fit      -0.042557
 **** Fit      -0.045289
 **** Fit      -0.047262
 **** Fit      -0.048274
 **** Fit      -0.048232
 **** Fit      -0.047178
 **** Fit      -0.045271
 **** Fit      -0.044037
 **** Fit      -0.045872
 **** Fit      -0.046831
 **** Fit      -0.046830
 **** Fit      -0.045899
 **** Fit      -0.043920
 **** Fit      -0.044806
 **** Fit      -0.044839
 -----------------------------------------------------------------
 Leave Link  602 at Thu Apr 21 11:14:19 2022, MaxMem=   104857600 cpu:               2.3 elap:               2.4
 (Enter /opt/ohpc/pub/libs/gaussian/g16-A.03/haswell/g16/l9999.exe)

 Test job not archived.
 1\1\GINC-CASCADEB055\SP\RB3LYP\6-311++G(d,p)\C9H12N2O2\MNG228\21-Apr-2
 022\0\\#P B3LYP/6-311++G(d,p) Geom=Allcheck SCF=Tight EmpiricalDispers
 ion=GD3BJ Pop=CHELPG SP IOp(6/33=2)\\MAA1-VI1 geo opt\\0,1\C,0,11.3728
 863733,12.5316683431,13.5923735317\C,0,12.574846485,12.3228044762,12.7
 097241783\C,0,13.1779373514,11.146473711,12.5414516956\C,0,13.08231774
 57,13.5213410925,11.9411498556\O,0,13.162424443,13.538025518,10.737532
 2493\O,0,13.4157369205,14.5895930048,12.6795667219\H,0,11.5690585018,1
 3.2672067975,14.375738046\H,0,11.0725061197,11.5938411074,14.063542115
 5\H,0,10.5308283037,12.9053277599,13.0008250308\H,0,12.8343361079,10.2
 590830326,13.0630573393\H,0,14.0181330057,11.0372652388,11.866322177\H
 ,0,13.4927321643,14.373882352,13.6472002139\C,0,15.1704611154,14.57424
 64846,19.7794474381\C,0,14.7347466048,15.1086957155,18.6433272958\N,0,
 14.4688678918,14.4036804819,17.4540159115\C,0,14.6055976317,13.0459696
 428,17.1990107811\C,0,14.2226546764,12.8684182749,15.9004849348\N,0,13
 .8507357386,14.0802605061,15.3495646721\C,0,14.0097017875,14.975357699
 9,16.2960406852\H,0,15.343821256,15.2114685339,20.6351065054\H,0,15.36
 60451531,13.5166390291,19.8976739154\H,0,14.5459765947,16.1709876473,1
 8.5487876373\H,0,14.9568642146,12.3541187405,17.9428687789\H,0,14.1883
 911826,11.9602123465,15.3213569041\H,0,13.8173926309,16.033432463,16.2
 108313855\\Version=ES64L-G16RevA.03\State=1-A\HF=-610.3208094\RMSD=7.4
 54e-09\Dipole=0.3177667,-0.2095193,3.7486258\Quadrupole=1.8272153,7.92
 22798,-9.7494951,-0.0815182,2.9100957,6.4981279\PG=C01 [X(C9H12N2O2)]\
 \@


 A HARD FALL SHOULD MEAN A HIGH BOUNCE 
 IF ONE IS MADE OF THE RIGHT MATERIAL.

                -- THE CHEMIST ANALYST, MARCH 1950
 Job cpu time:       0 days  0 hours  5 minutes 42.0 seconds.
 Elapsed time:       0 days  0 hours  5 minutes 43.4 seconds.
 File lengths (MBytes):  RWF=    304 Int=      0 D2E=      0 Chk=     32 Scr=     32
 Normal termination of Gaussian 16 at Thu Apr 21 11:14:19 2022.
