 Entering Gaussian System, Link 0=g16
 Initial command:
 /opt/ohpc/pub/libs/gaussian/g16-A.03/haswell/g16/l1.exe "g16_scratch/Gau-232231.inp" -scrdir="g16_scratch/"
 Entering Link 1 = /opt/ohpc/pub/libs/gaussian/g16-A.03/haswell/g16/l1.exe PID=    232232.
  
 Copyright (c) 1988,1990,1992,1993,1995,1998,2003,2009,2016,
            Gaussian, Inc.  All Rights Reserved.
  
 This is part of the Gaussian(R) 16 program.  It is based on
 the Gaussian(R) 09 system (copyright 2009, Gaussian, Inc.),
 the Gaussian(R) 03 system (copyright 2003, Gaussian, Inc.),
 the Gaussian(R) 98 system (copyright 1998, Gaussian, Inc.),
 the Gaussian(R) 94 system (copyright 1995, Gaussian, Inc.),
 the Gaussian 92(TM) system (copyright 1992, Gaussian, Inc.),
 the Gaussian 90(TM) system (copyright 1990, Gaussian, Inc.),
 the Gaussian 88(TM) system (copyright 1988, Gaussian, Inc.),
 the Gaussian 86(TM) system (copyright 1986, Carnegie Mellon
 University), and the Gaussian 82(TM) system (copyright 1983,
 Carnegie Mellon University). Gaussian is a federally registered
 trademark of Gaussian, Inc.
  
 This software contains proprietary and confidential information,
 including trade secrets, belonging to Gaussian, Inc.
  
 This software is provided under written license and may be
 used, copied, transmitted, or stored only in accord with that
 written license.
  
 The following legend is applicable only to US Government
 contracts under FAR:
  
                    RESTRICTED RIGHTS LEGEND
  
 Use, reproduction and disclosure by the US Government is
 subject to restrictions as set forth in subparagraphs (a)
 and (c) of the Commercial Computer Software - Restricted
 Rights clause in FAR 52.227-19.
  
 Gaussian, Inc.
 340 Quinnipiac St., Bldg. 40, Wallingford CT 06492
  
  
 ---------------------------------------------------------------
 Warning -- This program may not be used in any manner that
 competes with the business of Gaussian, Inc. or will provide
 assistance to any competitor of Gaussian, Inc.  The licensee
 of this program is prohibited from giving any competitor of
 Gaussian, Inc. access to this program.  By using this program,
 the user acknowledges that Gaussian, Inc. is engaged in the
 business of creating and licensing software in the field of
 computational chemistry and represents and warrants to the
 licensee that it is not a competitor of Gaussian, Inc. and that
 it will not use this program in any manner prohibited above.
 ---------------------------------------------------------------
  

 Cite this work as:
 Gaussian 16, Revision A.03,
 M. J. Frisch, G. W. Trucks, H. B. Schlegel, G. E. Scuseria, 
 M. A. Robb, J. R. Cheeseman, G. Scalmani, V. Barone, 
 G. A. Petersson, H. Nakatsuji, X. Li, M. Caricato, A. V. Marenich, 
 J. Bloino, B. G. Janesko, R. Gomperts, B. Mennucci, H. P. Hratchian, 
 J. V. Ortiz, A. F. Izmaylov, J. L. Sonnenberg, D. Williams-Young, 
 F. Ding, F. Lipparini, F. Egidi, J. Goings, B. Peng, A. Petrone, 
 T. Henderson, D. Ranasinghe, V. G. Zakrzewski, J. Gao, N. Rega, 
 G. Zheng, W. Liang, M. Hada, M. Ehara, K. Toyota, R. Fukuda, 
 J. Hasegawa, M. Ishida, T. Nakajima, Y. Honda, O. Kitao, H. Nakai, 
 T. Vreven, K. Throssell, J. A. Montgomery, Jr., J. E. Peralta, 
 F. Ogliaro, M. J. Bearpark, J. J. Heyd, E. N. Brothers, K. N. Kudin, 
 V. N. Staroverov, T. A. Keith, R. Kobayashi, J. Normand, 
 K. Raghavachari, A. P. Rendell, J. C. Burant, S. S. Iyengar, 
 J. Tomasi, M. Cossi, J. M. Millam, M. Klene, C. Adamo, R. Cammi, 
 J. W. Ochterski, R. L. Martin, K. Morokuma, O. Farkas, 
 J. B. Foresman, and D. J. Fox, Gaussian, Inc., Wallingford CT, 2016.
 
 ******************************************
 Gaussian 16:  ES64L-G16RevA.03 25-Dec-2016
                21-Apr-2022 
 ******************************************
 %Mem=192GB
 %NProcShared=48
 Will use up to   48 processors via shared memory.
 %Chk=MAA1-VI1-4.chk
 ---------------------------------------------------------------------
 #n B3LYP/6-311++G(d,p) Opt freq EmpiricalDispersion=GD3BJ IOp(6/33=2)
 ---------------------------------------------------------------------
 1/18=20,19=15,26=3,38=1/1,3;
 2/9=110,12=2,17=6,18=5,40=1/2;
 3/5=4,6=6,7=1111,11=2,25=1,30=1,71=1,74=-5,124=41/1,2,3;
 4//1;
 5/5=2,38=5/2;
 6/7=2,8=2,9=2,10=2,28=1,33=2/1;
 7//1,2,3,16;
 1/18=20,19=15,26=3/3(2);
 2/9=110/2;
 99//99;
 2/9=110/2;
 3/5=4,6=6,7=1111,11=2,25=1,30=1,71=1,74=-5,124=41/1,2,3;
 4/5=5,16=3,69=1/1;
 5/5=2,38=5/2;
 7//1,2,3,16;
 1/18=20,19=15,26=3/3(-5);
 2/9=110/2;
 6/7=2,8=2,9=2,10=2,19=2,28=1,33=2/1;
 99/9=1/99;
 ----------------
 MAA1-VI1 geo opt
 ----------------
 Symbolic Z-matrix:
 Charge =  0 Multiplicity = 1
 C                     12.001    11.295    12.132 
 C                     12.759    12.602    12.419 
 C                     13.966    12.811    11.802 
 C                     12.289    13.534    13.441 
 O                     12.973    14.384    13.918 
 O                     10.995    13.686    13.701 
 H                     11.257    10.967    12.858 
 H                     12.864    10.635    12.044 
 H                     11.41     11.281    11.216 
 H                     14.38     12.169    11.039 
 H                     14.512    13.63     12.246 
 H                     10.594    13.004    13.184 
 C                     7.624     16.584    9.837 
 C                     8.065     16.096    11.038 
 N                     8.775     15.019    10.935 
 C                     9.968     14.845    10.219 
 C                     10.249    13.519    10.206 
 N                     9.35      12.881    11.055 
 C                     8.422     13.809    11.316 
 H                     6.983     17.45     9.911 
 H                     8.045     16.303    8.883 
 H                     7.726     16.373    12.025 
 H                     10.542    15.675    9.834 
 H                     11.033    12.951    9.728 
 H                     7.541     13.639    11.916 
 
 Add virtual bond connecting atoms H24        and H9         Dist= 4.29D+00.

 GradGradGradGradGradGradGradGradGradGradGradGradGradGradGradGradGradGrad
 Berny optimization.
 Initialization pass.
                           ----------------------------
                           !    Initial Parameters    !
                           ! (Angstroms and Degrees)  !
 --------------------------                            --------------------------
 ! Name  Definition              Value          Derivative Info.                !
 --------------------------------------------------------------------------------
 ! R1    R(1,2)                  1.5379         estimate D2E/DX2                !
 ! R2    R(1,7)                  1.09           estimate D2E/DX2                !
 ! R3    R(1,8)                  1.09           estimate D2E/DX2                !
 ! R4    R(1,9)                  1.0902         estimate D2E/DX2                !
 ! R5    R(2,3)                  1.3716         estimate D2E/DX2                !
 ! R6    R(2,4)                  1.4608         estimate D2E/DX2                !
 ! R7    R(3,10)                 1.0797         estimate D2E/DX2                !
 ! R8    R(3,11)                 1.0798         estimate D2E/DX2                !
 ! R9    R(4,5)                  1.1907         estimate D2E/DX2                !
 ! R10   R(4,6)                  1.3286         estimate D2E/DX2                !
 ! R11   R(6,12)                 0.9451         estimate D2E/DX2                !
 ! R12   R(9,24)                 2.2683         estimate D2E/DX2                !
 ! R13   R(13,14)                1.3693         estimate D2E/DX2                !
 ! R14   R(13,20)                1.08           estimate D2E/DX2                !
 ! R15   R(13,21)                1.08           estimate D2E/DX2                !
 ! R16   R(14,15)                1.2941         estimate D2E/DX2                !
 ! R17   R(14,22)                1.0797         estimate D2E/DX2                !
 ! R18   R(15,16)                1.4022         estimate D2E/DX2                !
 ! R19   R(15,19)                1.3168         estimate D2E/DX2                !
 ! R20   R(16,17)                1.3555         estimate D2E/DX2                !
 ! R21   R(16,23)                1.0801         estimate D2E/DX2                !
 ! R22   R(17,18)                1.3914         estimate D2E/DX2                !
 ! R23   R(17,24)                1.0797         estimate D2E/DX2                !
 ! R24   R(18,19)                1.3381         estimate D2E/DX2                !
 ! R25   R(19,25)                1.0794         estimate D2E/DX2                !
 ! A1    A(2,1,7)              117.8942         estimate D2E/DX2                !
 ! A2    A(2,1,8)               98.0145         estimate D2E/DX2                !
 ! A3    A(2,1,9)              115.7789         estimate D2E/DX2                !
 ! A4    A(7,1,8)              114.3284         estimate D2E/DX2                !
 ! A5    A(7,1,9)              100.7039         estimate D2E/DX2                !
 ! A6    A(8,1,9)              110.7074         estimate D2E/DX2                !
 ! A7    A(1,2,3)              118.6388         estimate D2E/DX2                !
 ! A8    A(1,2,4)              120.9429         estimate D2E/DX2                !
 ! A9    A(3,2,4)              120.0416         estimate D2E/DX2                !
 ! A10   A(2,3,10)             124.3834         estimate D2E/DX2                !
 ! A11   A(2,3,11)             112.0598         estimate D2E/DX2                !
 ! A12   A(10,3,11)            123.2081         estimate D2E/DX2                !
 ! A13   A(2,4,5)              123.4263         estimate D2E/DX2                !
 ! A14   A(2,4,6)              121.5514         estimate D2E/DX2                !
 ! A15   A(5,4,6)              113.5415         estimate D2E/DX2                !
 ! A16   A(4,6,12)             102.9228         estimate D2E/DX2                !
 ! A17   A(1,9,24)             129.1848         estimate D2E/DX2                !
 ! A18   A(14,13,20)           114.6348         estimate D2E/DX2                !
 ! A19   A(14,13,21)           123.8145         estimate D2E/DX2                !
 ! A20   A(20,13,21)           120.0366         estimate D2E/DX2                !
 ! A21   A(13,14,15)           113.7965         estimate D2E/DX2                !
 ! A22   A(13,14,22)           127.5324         estimate D2E/DX2                !
 ! A23   A(15,14,22)           117.2921         estimate D2E/DX2                !
 ! A24   A(14,15,16)           127.641          estimate D2E/DX2                !
 ! A25   A(14,15,19)           126.4883         estimate D2E/DX2                !
 ! A26   A(16,15,19)           105.177          estimate D2E/DX2                !
 ! A27   A(15,16,17)           107.6174         estimate D2E/DX2                !
 ! A28   A(15,16,23)           122.6021         estimate D2E/DX2                !
 ! A29   A(17,16,23)           129.653          estimate D2E/DX2                !
 ! A30   A(16,17,18)           107.9841         estimate D2E/DX2                !
 ! A31   A(16,17,24)           132.02           estimate D2E/DX2                !
 ! A32   A(18,17,24)           119.8721         estimate D2E/DX2                !
 ! A33   A(17,18,19)           104.4246         estimate D2E/DX2                !
 ! A34   A(15,19,18)           113.2619         estimate D2E/DX2                !
 ! A35   A(15,19,25)           121.6264         estimate D2E/DX2                !
 ! A36   A(18,19,25)           124.4202         estimate D2E/DX2                !
 ! A37   A(9,24,17)            102.5667         estimate D2E/DX2                !
 ! D1    D(7,1,2,3)            158.5332         estimate D2E/DX2                !
 ! D2    D(7,1,2,4)            -14.4239         estimate D2E/DX2                !
 ! D3    D(8,1,2,3)             35.4912         estimate D2E/DX2                !
 ! D4    D(8,1,2,4)           -137.4659         estimate D2E/DX2                !
 ! D5    D(9,1,2,3)            -82.1898         estimate D2E/DX2                !
 ! D6    D(9,1,2,4)            104.8531         estimate D2E/DX2                !
 ! D7    D(2,1,9,24)            -4.1588         estimate D2E/DX2                !
 ! D8    D(7,1,9,24)           124.1601         estimate D2E/DX2                !
 ! D9    D(8,1,9,24)          -114.5297         estimate D2E/DX2                !
 ! D10   D(1,2,3,10)             7.0147         estimate D2E/DX2                !
 ! D11   D(1,2,3,11)          -166.3762         estimate D2E/DX2                !
 ! D12   D(4,2,3,10)          -179.9629         estimate D2E/DX2                !
 ! D13   D(4,2,3,11)             6.6463         estimate D2E/DX2                !
 ! D14   D(1,2,4,5)            162.1316         estimate D2E/DX2                !
 ! D15   D(1,2,4,6)            -32.657          estimate D2E/DX2                !
 ! D16   D(3,2,4,5)            -10.7275         estimate D2E/DX2                !
 ! D17   D(3,2,4,6)            154.484          estimate D2E/DX2                !
 ! D18   D(2,4,6,12)             7.4345         estimate D2E/DX2                !
 ! D19   D(5,4,6,12)           173.9977         estimate D2E/DX2                !
 ! D20   D(1,9,24,17)          -80.6766         estimate D2E/DX2                !
 ! D21   D(20,13,14,15)        176.648          estimate D2E/DX2                !
 ! D22   D(20,13,14,22)         10.5502         estimate D2E/DX2                !
 ! D23   D(21,13,14,15)        -17.4355         estimate D2E/DX2                !
 ! D24   D(21,13,14,22)        176.4668         estimate D2E/DX2                !
 ! D25   D(13,14,15,16)         58.7339         estimate D2E/DX2                !
 ! D26   D(13,14,15,19)       -110.2812         estimate D2E/DX2                !
 ! D27   D(22,14,15,16)       -133.6464         estimate D2E/DX2                !
 ! D28   D(22,14,15,19)         57.3384         estimate D2E/DX2                !
 ! D29   D(14,15,16,17)       -170.243          estimate D2E/DX2                !
 ! D30   D(14,15,16,23)         13.4988         estimate D2E/DX2                !
 ! D31   D(19,15,16,17)          0.6236         estimate D2E/DX2                !
 ! D32   D(19,15,16,23)       -175.6346         estimate D2E/DX2                !
 ! D33   D(14,15,19,18)        178.4929         estimate D2E/DX2                !
 ! D34   D(14,15,19,25)        -10.639          estimate D2E/DX2                !
 ! D35   D(16,15,19,18)          7.4874         estimate D2E/DX2                !
 ! D36   D(16,15,19,25)        178.3555         estimate D2E/DX2                !
 ! D37   D(15,16,17,18)         -7.9496         estimate D2E/DX2                !
 ! D38   D(15,16,17,24)        176.2243         estimate D2E/DX2                !
 ! D39   D(23,16,17,18)        167.9556         estimate D2E/DX2                !
 ! D40   D(23,16,17,24)         -7.8705         estimate D2E/DX2                !
 ! D41   D(16,17,18,19)         12.0151         estimate D2E/DX2                !
 ! D42   D(24,17,18,19)       -171.5601         estimate D2E/DX2                !
 ! D43   D(16,17,24,9)         146.224          estimate D2E/DX2                !
 ! D44   D(18,17,24,9)         -29.1969         estimate D2E/DX2                !
 ! D45   D(17,18,19,15)        -12.2514         estimate D2E/DX2                !
 ! D46   D(17,18,19,25)        177.1773         estimate D2E/DX2                !
 --------------------------------------------------------------------------------
 Trust Radius=3.00D-01 FncErr=1.00D-07 GrdErr=1.00D-06 EigMax=2.50D+02 EigMin=1.00D-04
 Number of steps in this run=    118 maximum allowed number of steps=    150.
 GradGradGradGradGradGradGradGradGradGradGradGradGradGradGradGradGradGrad

                          Input orientation:                          
 ---------------------------------------------------------------------
 Center     Atomic      Atomic             Coordinates (Angstroms)
 Number     Number       Type             X           Y           Z
 ---------------------------------------------------------------------
      1          6           0       12.001000   11.295000   12.132000
      2          6           0       12.759000   12.602000   12.419000
      3          6           0       13.966000   12.811000   11.802000
      4          6           0       12.289000   13.534000   13.441000
      5          8           0       12.973000   14.384000   13.918000
      6          8           0       10.995000   13.686000   13.701000
      7          1           0       11.257000   10.967000   12.858000
      8          1           0       12.864000   10.635000   12.044000
      9          1           0       11.410000   11.281000   11.216000
     10          1           0       14.380000   12.169000   11.039000
     11          1           0       14.512000   13.630000   12.246000
     12          1           0       10.594000   13.004000   13.184000
     13          6           0        7.624000   16.584000    9.837000
     14          6           0        8.065000   16.096000   11.038000
     15          7           0        8.775000   15.019000   10.935000
     16          6           0        9.968000   14.845000   10.219000
     17          6           0       10.249000   13.519000   10.206000
     18          7           0        9.350000   12.881000   11.055000
     19          6           0        8.422000   13.809000   11.316000
     20          1           0        6.983000   17.450000    9.911000
     21          1           0        8.045000   16.303000    8.883000
     22          1           0        7.726000   16.373000   12.025000
     23          1           0       10.542000   15.675000    9.834000
     24          1           0       11.033000   12.951000    9.728000
     25          1           0        7.541000   13.639000   11.916000
 ---------------------------------------------------------------------
                    Distance matrix (angstroms):
                    1          2          3          4          5
     1  C    0.000000
     2  C    1.537915   0.000000
     3  C    2.503674   1.371575   0.000000
     4  C    2.609511   1.460824   2.453850   0.000000
     5  O    3.698175   2.338444   2.817416   1.190750   0.000000
     6  O    3.031613   2.435216   3.632997   1.328586   2.108738
     7  H    1.090044   2.263173   3.442986   2.827437   3.967889
     8  H    1.090006   2.005178   2.451111   3.269011   4.192703
     9  H    1.090199   2.238761   3.036022   3.286225   4.401407
    10  H    2.760103   2.172448   1.079689   3.464839   3.895448
    11  H    3.430793   2.039540   1.079821   2.525662   2.394289
    12  H    2.450925   2.331106   3.649323   1.794429   2.846541
    13  C    7.238693   6.992229   7.636604   6.637284   7.078585
    14  C    6.303851   6.012390   6.796817   5.493672   5.942542
    15  N    5.070312   4.890440   5.707314   4.564368   5.188903
    16  C    4.516100   4.202467   4.756790   4.181752   4.788021
    17  C    3.424202   3.469634   4.106649   3.824533   4.684799
    18  N    3.271563   3.682339   4.676576   3.841500   4.856121
    19  C    4.449190   4.634979   5.654037   4.420966   5.273768
    20  H    8.246041   7.947034   8.594096   7.479946   7.831763
    21  H    7.161425   6.958627   7.468123   6.815736   7.301984
    22  H    6.638762   6.301330   7.188545   5.557513   5.922042
    23  H    5.156926   4.587008   4.878452   4.543824   4.924987
    24  H    3.075480   3.215954   3.594936   3.962801   4.834583
    25  H    5.043074   5.343772   6.479136   4.988001   5.836922
                    6          7          8          9         10
     6  O    0.000000
     7  H    2.858715   0.000000
     8  H    3.943021   1.831739   0.000000
     9  H    3.483027   1.678740   1.793604   0.000000
    10  H    4.565715   3.808765   2.379377   3.104959   0.000000
    11  H    3.806501   4.249840   3.424432   4.025060   1.899683
    12  H    0.945100   2.166844   3.473422   2.740002   4.430806
    13  C    5.890037   7.340015   8.229159   6.660124   8.159691
    14  C    4.635145   6.309351   7.339275   5.865572   7.436434
    15  N    3.788937   5.126105   6.096660   4.582012   6.288827
    16  C    3.810818   4.864640   5.426006   3.971834   5.224856
    17  C    3.577629   3.816002   4.305105   2.716002   4.425105
    18  N    3.217975   3.248208   4.286121   2.613335   5.080167
    19  C    3.510510   4.300227   5.507778   3.915217   6.185798
    20  H    6.680415   8.305491   9.250950   7.704409   9.158436
    21  H    6.226099   7.388536   8.083372   6.479707   7.865781
    22  H    4.551407   6.510506   7.702211   6.336782   7.932309
    23  H    4.372073   5.641016   5.973055   4.687279   5.336132
    24  H    4.040594   3.712591   3.752369   2.268297   3.678676
    25  H    3.888258   4.672858   6.113487   4.584684   7.049961
                   11         12         13         14         15
    11  H    0.000000
    12  H    4.077063   0.000000
    13  C    7.872353   5.730594   0.000000
    14  C    7.007441   4.534492   1.369316   0.000000
    15  N    6.046587   3.525193   2.231508   1.294078   0.000000
    16  C    5.121805   3.545755   2.943532   2.420159   1.402206
    17  C    4.727271   3.041831   4.052285   3.478938   2.225785
    18  N    5.350301   2.468867   4.263192   3.462331   2.217221
    19  C    6.163201   2.975741   3.244206   2.331331   1.316765
    20  H    8.759593   6.596875   1.079960   2.067406   3.188981
    21  H    7.763813   5.989942   1.079962   2.165011   2.528292
    22  H    7.322751   4.573715   2.200516   1.079731   2.030226
    23  H    5.075497   4.284792   3.056307   2.786106   2.182848
    24  H    4.347966   3.484174   4.983157   4.518423   3.291206
    25  H    6.978812   3.366283   3.605850   2.661261   2.095117
                   16         17         18         19         20
    16  C    0.000000
    17  C    1.355509   0.000000
    18  N    2.222187   1.391419   0.000000
    19  C    2.160283   2.157343   1.338092   0.000000
    20  H    3.973803   5.119233   5.271355   4.159522   0.000000
    21  H    2.758367   3.789274   4.258015   3.504519   1.870892
    22  H    3.259292   4.221328   3.971441   2.749762   2.486156
    23  H    1.080093   2.207390   3.273857   3.189464   3.977818
    24  H    2.227676   1.079706   2.144369   3.174150   6.056153
    25  H    3.197589   3.204959   2.142047   1.079380   4.342247
                   21         22         23         24         25
    21  H    0.000000
    22  H    3.158928   0.000000
    23  H    2.744776   3.635594   0.000000
    24  H    4.569253   5.284178   2.769927   0.000000
    25  H    4.068169   2.742419   4.181629   4.177888   0.000000
 Stoichiometry    C9H12N2O2
 Framework group  C1[X(C9H12N2O2)]
 Deg. of freedom    69
 Full point group                 C1      NOp   1
 Largest Abelian subgroup         C1      NOp   1
 Largest concise Abelian subgroup C1      NOp   1
                         Standard orientation:                         
 ---------------------------------------------------------------------
 Center     Atomic      Atomic             Coordinates (Angstroms)
 Number     Number       Type             X           Y           Z
 ---------------------------------------------------------------------
      1          6           0       -2.493933   -1.507660   -0.663665
      2          6           0       -2.595337   -0.256648    0.225081
      3          6           0       -3.209849   -0.365979    1.446409
      4          6           0       -2.189714    1.054709   -0.274739
      5          8           0       -2.521131    2.080611    0.230802
      6          8           0       -1.196956    1.189487   -1.147325
      7          1           0       -2.344386   -1.362368   -1.733581
      8          1           0       -3.450966   -1.958544   -0.401169
      9          1           0       -1.672232   -2.186571   -0.434710
     10          1           0       -3.537447   -1.297571    1.882923
     11          1           0       -3.433572    0.599256    1.875691
     12          1           0       -0.995155    0.295372   -1.377649
     13          6           0        4.347318    0.431664    0.690953
     14          6           0        3.297301    0.905385   -0.049370
     15          7           0        2.272178    0.115784   -0.066441
     16          6           0        1.528550   -0.345926    1.029014
     17          6           0        0.691007   -1.311825    0.578497
     18          7           0        0.769779   -1.335164   -0.810494
     19          6           0        1.835519   -0.578339   -1.096680
     20          1           0        5.230549    1.052713    0.668276
     21          1           0        4.258237   -0.354850    1.425649
     22          1           0        3.306631    1.719990   -0.757996
     23          1           0        1.614136    0.087398    2.014664
     24          1           0       -0.006957   -1.958756    1.088488
     25          1           0        2.216989   -0.413480   -2.092854
 ---------------------------------------------------------------------
 Rotational constants (GHZ):           1.4714087           0.4178753           0.3879862
 Standard basis: 6-311++G(d,p) (5D, 7F)
 There are   383 symmetry adapted cartesian basis functions of A   symmetry.
 There are   370 symmetry adapted basis functions of A   symmetry.
   370 basis functions,   576 primitive gaussians,   383 cartesian basis functions
    48 alpha electrons       48 beta electrons
       nuclear repulsion energy       769.0175069139 Hartrees.
 NAtoms=   25 NActive=   25 NUniq=   25 SFac= 1.00D+00 NAtFMM=   60 NAOKFM=F Big=F
 Integral buffers will be    131072 words long.
 Raffenetti 2 integral format.
 Two-electron integral symmetry is turned on.
 Nuclear repulsion after empirical dispersion term =      768.9746414473 Hartrees.
 One-electron integrals computed using PRISM.
 NBasis=   370 RedAO= T EigKep=  6.85D-06  NBF=   370
 NBsUse=   370 1.00D-06 EigRej= -1.00D+00 NBFU=   370
 ExpMin= 3.60D-02 ExpMax= 8.59D+03 ExpMxC= 1.30D+03 IAcc=3 IRadAn=         5 AccDes= 0.00D+00
 Harris functional with IExCor=  402 and IRadAn=       5 diagonalized for initial guess.
 HarFok:  IExCor=  402 AccDes= 0.00D+00 IRadAn=         5 IDoV= 1 UseB2=F ITyADJ=14
 ICtDFT=  3500011 ScaDFX=  1.000000  1.000000  1.000000  1.000000
 FoFCou: FMM=F IPFlag=           0 FMFlag=      100000 FMFlg1=           0
         NFxFlg=           0 DoJE=T BraDBF=F KetDBF=T FulRan=T
         wScrn=  0.000000 ICntrl=       500 IOpCl=  0 I1Cent=   200000004 NGrid=           0
         NMat0=    1 NMatS0=      1 NMatT0=    0 NMatD0=    1 NMtDS0=    0 NMtDT0=    0
 Petite list used in FoFCou.
 Requested convergence on RMS density matrix=1.00D-08 within 128 cycles.
 Requested convergence on MAX density matrix=1.00D-06.
 Requested convergence on             energy=1.00D-06.
 No special actions if energy rises.
 SCF Done:  E(RB3LYP) =  -610.245294998     A.U. after   15 cycles
            NFock= 15  Conv=0.44D-08     -V/T= 2.0031
 SCF density gives NOpUse=  1 NOpAll=  1.

 **********************************************************************

            Population analysis using the SCF density.

 **********************************************************************

 Orbital symmetries:
 BldTbl:  Degeneracy threshold= 1.00D-02
       Occupied  (A) (A) (A) (A) (A) (A) (A) (A) (A) (A) (A) (A)
                 (A) (A) (A) (A) (A) (A) (A) (A) (A) (A) (A) (A)
                 (A) (A) (A) (A) (A) (A) (A) (A) (A) (A) (A) (A)
                 (A) (A) (A) (A) (A) (A) (A) (A) (A) (A) (A) (A)
       Virtual   (A) (A) (A) (A) (A) (A) (A) (A) (A) (A) (A) (A)
                 (A) (A) (A) (A) (A) (A) (A) (A) (A) (A) (A) (A)
                 (A) (A) (A) (A) (A) (A) (A) (A) (A) (A) (A) (A)
                 (A) (A) (A) (A) (A) (A) (A) (A) (A) (A) (A) (A)
                 (A) (A) (A) (A) (A) (A) (A) (A) (A) (A) (A) (A)
                 (A) (A) (A) (A) (A) (A) (A) (A) (A) (A) (A) (A)
                 (A) (A) (A) (A) (A) (A) (A) (A) (A) (A) (A) (A)
                 (A) (A) (A) (A) (A) (A) (A) (A) (A) (A) (A) (A)
                 (A) (A) (A) (A) (A) (A) (A) (A) (A) (A) (A) (A)
                 (A) (A) (A) (A) (A) (A) (A) (A) (A) (A) (A) (A)
                 (A) (A) (A) (A) (A) (A) (A) (A) (A) (A) (A) (A)
                 (A) (A) (A) (A) (A) (A) (A) (A) (A) (A) (A) (A)
                 (A) (A) (A) (A) (A) (A) (A) (A) (A) (A) (A) (A)
                 (A) (A) (A) (A) (A) (A) (A) (A) (A) (A) (A) (A)
                 (A) (A) (A) (A) (A) (A) (A) (A) (A) (A) (A) (A)
                 (A) (A) (A) (A) (A) (A) (A) (A) (A) (A) (A) (A)
                 (A) (A) (A) (A) (A) (A) (A) (A) (A) (A) (A) (A)
                 (A) (A) (A) (A) (A) (A) (A) (A) (A) (A) (A) (A)
                 (A) (A) (A) (A) (A) (A) (A) (A) (A) (A) (A) (A)
                 (A) (A) (A) (A) (A) (A) (A) (A) (A) (A) (A) (A)
                 (A) (A) (A) (A) (A) (A) (A) (A) (A) (A) (A) (A)
                 (A) (A) (A) (A) (A) (A) (A) (A) (A) (A) (A) (A)
                 (A) (A) (A) (A) (A) (A) (A) (A) (A) (A) (A) (A)
                 (A) (A) (A) (A) (A) (A) (A) (A) (A) (A) (A) (A)
                 (A) (A) (A) (A) (A) (A) (A) (A) (A) (A) (A) (A)
                 (A) (A) (A) (A) (A) (A) (A) (A) (A) (A) (A) (A)
                 (A) (A) (A) (A) (A) (A) (A) (A) (A) (A)
 The electronic state is 1-A.
 Alpha  occ. eigenvalues --  -19.16250 -19.08965 -14.39257 -14.31130 -10.29122
 Alpha  occ. eigenvalues --  -10.23950 -10.23919 -10.21468 -10.20843 -10.20313
 Alpha  occ. eigenvalues --  -10.20214 -10.18941 -10.17829  -1.12058  -1.06767
 Alpha  occ. eigenvalues --   -1.01897  -0.93003  -0.81804  -0.78625  -0.77020
 Alpha  occ. eigenvalues --   -0.70211  -0.67599  -0.64624  -0.62763  -0.59989
 Alpha  occ. eigenvalues --   -0.58882  -0.56262  -0.50934  -0.50618  -0.47665
 Alpha  occ. eigenvalues --   -0.47214  -0.45805  -0.45794  -0.44032  -0.43023
 Alpha  occ. eigenvalues --   -0.42931  -0.42634  -0.41951  -0.40800  -0.39124
 Alpha  occ. eigenvalues --   -0.37249  -0.33352  -0.31739  -0.28938  -0.27601
 Alpha  occ. eigenvalues --   -0.27190  -0.26486  -0.25208
 Alpha virt. eigenvalues --   -0.06439  -0.05871  -0.01347  -0.00841  -0.00320
 Alpha virt. eigenvalues --    0.00642   0.01327   0.01696   0.02009   0.02301
 Alpha virt. eigenvalues --    0.03120   0.03797   0.04021   0.04651   0.05226
 Alpha virt. eigenvalues --    0.05680   0.06370   0.06742   0.07382   0.07604
 Alpha virt. eigenvalues --    0.08235   0.08630   0.08704   0.09277   0.10155
 Alpha virt. eigenvalues --    0.10482   0.10704   0.11080   0.11516   0.11926
 Alpha virt. eigenvalues --    0.12224   0.12437   0.12759   0.12914   0.13229
 Alpha virt. eigenvalues --    0.13597   0.14295   0.14501   0.14951   0.15015
 Alpha virt. eigenvalues --    0.15451   0.15782   0.16149   0.16475   0.16676
 Alpha virt. eigenvalues --    0.17905   0.18116   0.18381   0.18784   0.19171
 Alpha virt. eigenvalues --    0.19911   0.20238   0.20969   0.21393   0.22087
 Alpha virt. eigenvalues --    0.22488   0.23051   0.23479   0.24179   0.24690
 Alpha virt. eigenvalues --    0.24984   0.25922   0.26701   0.27200   0.27771
 Alpha virt. eigenvalues --    0.28069   0.28760   0.29626   0.29954   0.30421
 Alpha virt. eigenvalues --    0.30878   0.31150   0.31588   0.31914   0.32474
 Alpha virt. eigenvalues --    0.32805   0.33432   0.34536   0.34908   0.35308
 Alpha virt. eigenvalues --    0.35970   0.36704   0.36984   0.37873   0.38875
 Alpha virt. eigenvalues --    0.40527   0.42592   0.42877   0.43992   0.44636
 Alpha virt. eigenvalues --    0.44860   0.45447   0.48982   0.50054   0.50975
 Alpha virt. eigenvalues --    0.52308   0.52810   0.53426   0.55271   0.56217
 Alpha virt. eigenvalues --    0.57783   0.58496   0.58917   0.59946   0.60139
 Alpha virt. eigenvalues --    0.60801   0.62019   0.62134   0.63568   0.64689
 Alpha virt. eigenvalues --    0.65121   0.66930   0.67725   0.68414   0.69478
 Alpha virt. eigenvalues --    0.69718   0.70472   0.71112   0.71655   0.72849
 Alpha virt. eigenvalues --    0.73502   0.74738   0.74800   0.75531   0.76189
 Alpha virt. eigenvalues --    0.77710   0.78475   0.80317   0.81141   0.81936
 Alpha virt. eigenvalues --    0.84298   0.84901   0.85742   0.86672   0.88852
 Alpha virt. eigenvalues --    0.89445   0.90557   0.93095   0.93649   0.94606
 Alpha virt. eigenvalues --    0.95467   0.97933   0.98950   1.01592   1.03093
 Alpha virt. eigenvalues --    1.04159   1.05604   1.07226   1.08540   1.10311
 Alpha virt. eigenvalues --    1.11243   1.11732   1.14771   1.16909   1.18542
 Alpha virt. eigenvalues --    1.19410   1.20687   1.21852   1.23622   1.24248
 Alpha virt. eigenvalues --    1.25068   1.26042   1.28536   1.31715   1.35365
 Alpha virt. eigenvalues --    1.36300   1.37042   1.38533   1.41365   1.43563
 Alpha virt. eigenvalues --    1.46376   1.47306   1.48315   1.49451   1.51228
 Alpha virt. eigenvalues --    1.52170   1.52837   1.56169   1.57422   1.57818
 Alpha virt. eigenvalues --    1.59202   1.60059   1.61841   1.62767   1.64577
 Alpha virt. eigenvalues --    1.65216   1.66700   1.68957   1.69261   1.69534
 Alpha virt. eigenvalues --    1.72053   1.73178   1.75349   1.76542   1.77006
 Alpha virt. eigenvalues --    1.77450   1.78925   1.80529   1.81223   1.82067
 Alpha virt. eigenvalues --    1.85447   1.87300   1.88017   1.89259   1.91329
 Alpha virt. eigenvalues --    1.93101   1.94384   1.96895   2.01761   2.02504
 Alpha virt. eigenvalues --    2.04528   2.05511   2.08405   2.08946   2.10852
 Alpha virt. eigenvalues --    2.12154   2.12536   2.15918   2.16359   2.18558
 Alpha virt. eigenvalues --    2.20298   2.21529   2.23879   2.27875   2.30772
 Alpha virt. eigenvalues --    2.33966   2.35111   2.42374   2.43220   2.44748
 Alpha virt. eigenvalues --    2.46745   2.53828   2.54363   2.55319   2.56783
 Alpha virt. eigenvalues --    2.57774   2.58130   2.58977   2.61016   2.61943
 Alpha virt. eigenvalues --    2.63407   2.64084   2.66218   2.67501   2.69573
 Alpha virt. eigenvalues --    2.70424   2.71607   2.73185   2.74186   2.74636
 Alpha virt. eigenvalues --    2.75911   2.76976   2.79146   2.79552   2.81121
 Alpha virt. eigenvalues --    2.84161   2.85831   2.87742   2.88374   2.90021
 Alpha virt. eigenvalues --    2.91838   2.94108   2.96005   2.98131   3.00060
 Alpha virt. eigenvalues --    3.03644   3.06119   3.07476   3.13376   3.15562
 Alpha virt. eigenvalues --    3.18564   3.20708   3.23267   3.28625   3.36357
 Alpha virt. eigenvalues --    3.38111   3.41337   3.42620   3.44232   3.54636
 Alpha virt. eigenvalues --    3.58312   3.59759   3.64737   3.65859   3.69569
 Alpha virt. eigenvalues --    3.73968   3.74834   3.77200   3.80185   3.84512
 Alpha virt. eigenvalues --    3.87999   3.93473   3.97350   3.99539   4.08473
 Alpha virt. eigenvalues --    4.08897   4.14247   4.29735   4.33098   4.52060
 Alpha virt. eigenvalues --    4.76015   5.05250   5.09101   5.10394   5.20500
 Alpha virt. eigenvalues --    5.21990   5.47893   5.67701   5.89404  23.73639
 Alpha virt. eigenvalues --   23.76932  23.85530  23.91015  23.95336  23.96676
 Alpha virt. eigenvalues --   24.12034  24.14495  24.19714  35.54143  35.69901
 Alpha virt. eigenvalues --   49.89195  50.06706
          Condensed to atoms (all electrons):
               1          2          3          4          5          6
     1  C    7.074226  -0.440987  -0.973750  -0.091763   0.008954   0.128892
     2  C   -0.440987   6.942965  -0.439626  -0.568602  -0.098649  -0.141483
     3  C   -0.973750  -0.439626   7.218741  -0.236944   0.009244  -0.045840
     4  C   -0.091763  -0.568602  -0.236944   7.064396   0.373496   0.002766
     5  O    0.008954  -0.098649   0.009244   0.373496   8.089908  -0.150697
     6  O    0.128892  -0.141483  -0.045840   0.002766  -0.150697   8.022323
     7  H    0.338522   0.034410   0.025033  -0.033039  -0.000180  -0.006833
     8  H    0.438373  -0.130565  -0.008793   0.035340  -0.001073  -0.004786
     9  H    0.457323  -0.095693  -0.039772   0.024996  -0.000204  -0.000170
    10  H   -0.032569  -0.045057   0.411435   0.008833   0.000130  -0.000548
    11  H    0.069206  -0.024492   0.276172   0.004852   0.016469   0.012791
    12  H   -0.039286   0.042861   0.054378  -0.032055   0.033058   0.199204
    13  C   -0.002781   0.004229   0.002381  -0.014487  -0.000019   0.003714
    14  C    0.001303  -0.005151  -0.007917   0.029562  -0.001153  -0.004656
    15  N   -0.009011  -0.002951  -0.000613   0.040028   0.001485  -0.021655
    16  C    0.021591   0.253397  -0.012034  -0.204999  -0.002270   0.017185
    17  C   -0.124295  -0.215126   0.085750   0.129337   0.002103   0.018403
    18  N    0.083693  -0.052278  -0.082867   0.048828  -0.004630   0.009791
    19  C    0.022670   0.009446  -0.001488  -0.005476  -0.002010   0.011392
    20  H   -0.000107  -0.000225  -0.000071   0.000785   0.000011  -0.000176
    21  H    0.000998  -0.000285  -0.000536  -0.000361  -0.000018   0.000202
    22  H   -0.000688  -0.002086  -0.000347   0.005816  -0.000142  -0.000675
    23  H    0.003135   0.002380  -0.004819  -0.006792  -0.000068   0.003769
    24  H   -0.051044   0.030415   0.029605  -0.001667  -0.001278   0.001683
    25  H    0.001878  -0.004148   0.001244   0.002606  -0.000178   0.001826
               7          8          9         10         11         12
     1  C    0.338522   0.438373   0.457323  -0.032569   0.069206  -0.039286
     2  C    0.034410  -0.130565  -0.095693  -0.045057  -0.024492   0.042861
     3  C    0.025033  -0.008793  -0.039772   0.411435   0.276172   0.054378
     4  C   -0.033039   0.035340   0.024996   0.008833   0.004852  -0.032055
     5  O   -0.000180  -0.001073  -0.000204   0.000130   0.016469   0.033058
     6  O   -0.006833  -0.004786  -0.000170  -0.000548   0.012791   0.199204
     7  H    0.553880  -0.020157  -0.076227   0.002456  -0.003595  -0.002807
     8  H   -0.020157   0.567206  -0.016665  -0.008424   0.001527   0.004392
     9  H   -0.076227  -0.016665   0.605920   0.003316   0.001657  -0.005703
    10  H    0.002456  -0.008424   0.003316   0.516823  -0.009612  -0.000156
    11  H   -0.003595   0.001527   0.001657  -0.009612   0.475772  -0.002805
    12  H   -0.002807   0.004392  -0.005703  -0.000156  -0.002805   0.543993
    13  C   -0.000095   0.000048  -0.000106   0.000078  -0.000084   0.001616
    14  C   -0.000280   0.000159  -0.001169  -0.000224  -0.000194   0.003052
    15  N   -0.002246   0.001268   0.001223  -0.000280  -0.000448   0.013354
    16  C   -0.008357  -0.000624   0.030747   0.000293  -0.001915   0.022220
    17  C    0.026361  -0.011334  -0.077621   0.004350  -0.001344  -0.026347
    18  N   -0.026564   0.013250   0.016748  -0.004426   0.000634   0.015715
    19  C    0.004915  -0.001199   0.000968   0.000206   0.001891  -0.037217
    20  H   -0.000024   0.000005   0.000056  -0.000004  -0.000011   0.000136
    21  H   -0.000060   0.000029   0.000144  -0.000031   0.000052  -0.000192
    22  H    0.000078  -0.000036  -0.000220   0.000007  -0.000078   0.000488
    23  H    0.000122  -0.000604   0.001978   0.000261  -0.000149  -0.000849
    24  H    0.006374  -0.003703  -0.028669   0.002258  -0.002115   0.001319
    25  H    0.000329  -0.000275   0.000858   0.000096   0.000147  -0.006772
              13         14         15         16         17         18
     1  C   -0.002781   0.001303  -0.009011   0.021591  -0.124295   0.083693
     2  C    0.004229  -0.005151  -0.002951   0.253397  -0.215126  -0.052278
     3  C    0.002381  -0.007917  -0.000613  -0.012034   0.085750  -0.082867
     4  C   -0.014487   0.029562   0.040028  -0.204999   0.129337   0.048828
     5  O   -0.000019  -0.001153   0.001485  -0.002270   0.002103  -0.004630
     6  O    0.003714  -0.004656  -0.021655   0.017185   0.018403   0.009791
     7  H   -0.000095  -0.000280  -0.002246  -0.008357   0.026361  -0.026564
     8  H    0.000048   0.000159   0.001268  -0.000624  -0.011334   0.013250
     9  H   -0.000106  -0.001169   0.001223   0.030747  -0.077621   0.016748
    10  H    0.000078  -0.000224  -0.000280   0.000293   0.004350  -0.004426
    11  H   -0.000084  -0.000194  -0.000448  -0.001915  -0.001344   0.000634
    12  H    0.001616   0.003052   0.013354   0.022220  -0.026347   0.015715
    13  C    5.535767   0.049636  -0.033202   0.058348   0.043877   0.031098
    14  C    0.049636   6.041813  -0.066653   0.044778  -0.311502   0.038883
    15  N   -0.033202  -0.066653   6.937929   0.104112  -0.063843   0.052518
    16  C    0.058348   0.044778   0.104112   6.953053  -1.358028   0.170384
    17  C    0.043877  -0.311502  -0.063843  -1.358028   7.722681  -0.161923
    18  N    0.031098   0.038883   0.052518   0.170384  -0.161923   7.092626
    19  C   -0.065370  -0.117688   0.055767  -0.002305  -0.172953   0.110561
    20  H    0.406072  -0.071878   0.033623  -0.000125  -0.004554   0.002659
    21  H    0.380880   0.008876  -0.026771  -0.005100   0.000952   0.002683
    22  H   -0.100519   0.523061  -0.098294  -0.012411  -0.003466   0.000287
    23  H   -0.004547  -0.001685  -0.093016   0.424095  -0.028966   0.006116
    24  H    0.000070   0.003217   0.015425  -0.114418   0.534514  -0.101131
    25  H   -0.005529  -0.017188  -0.119474   0.016160   0.055509  -0.086063
              19         20         21         22         23         24
     1  C    0.022670  -0.000107   0.000998  -0.000688   0.003135  -0.051044
     2  C    0.009446  -0.000225  -0.000285  -0.002086   0.002380   0.030415
     3  C   -0.001488  -0.000071  -0.000536  -0.000347  -0.004819   0.029605
     4  C   -0.005476   0.000785  -0.000361   0.005816  -0.006792  -0.001667
     5  O   -0.002010   0.000011  -0.000018  -0.000142  -0.000068  -0.001278
     6  O    0.011392  -0.000176   0.000202  -0.000675   0.003769   0.001683
     7  H    0.004915  -0.000024  -0.000060   0.000078   0.000122   0.006374
     8  H   -0.001199   0.000005   0.000029  -0.000036  -0.000604  -0.003703
     9  H    0.000968   0.000056   0.000144  -0.000220   0.001978  -0.028669
    10  H    0.000206  -0.000004  -0.000031   0.000007   0.000261   0.002258
    11  H    0.001891  -0.000011   0.000052  -0.000078  -0.000149  -0.002115
    12  H   -0.037217   0.000136  -0.000192   0.000488  -0.000849   0.001319
    13  C   -0.065370   0.406072   0.380880  -0.100519  -0.004547   0.000070
    14  C   -0.117688  -0.071878   0.008876   0.523061  -0.001685   0.003217
    15  N    0.055767   0.033623  -0.026771  -0.098294  -0.093016   0.015425
    16  C   -0.002305  -0.000125  -0.005100  -0.012411   0.424095  -0.114418
    17  C   -0.172953  -0.004554   0.000952  -0.003466  -0.028966   0.534514
    18  N    0.110561   0.002659   0.002683   0.000287   0.006116  -0.101131
    19  C    5.871681  -0.005275  -0.009412  -0.008350   0.032435   0.001190
    20  H   -0.005275   0.534266  -0.030679  -0.002736  -0.000644  -0.000088
    21  H   -0.009412  -0.030679   0.514025   0.003334  -0.005348   0.000044
    22  H   -0.008350  -0.002736   0.003334   0.499086   0.000303   0.000890
    23  H    0.032435  -0.000644  -0.005348   0.000303   0.513089  -0.004388
    24  H    0.001190  -0.000088   0.000044   0.000890  -0.004388   0.545216
    25  H    0.478612  -0.000746  -0.001346  -0.002995   0.002526  -0.000889
              25
     1  C    0.001878
     2  C   -0.004148
     3  C    0.001244
     4  C    0.002606
     5  O   -0.000178
     6  O    0.001826
     7  H    0.000329
     8  H   -0.000275
     9  H    0.000858
    10  H    0.000096
    11  H    0.000147
    12  H   -0.006772
    13  C   -0.005529
    14  C   -0.017188
    15  N   -0.119474
    16  C    0.016160
    17  C    0.055509
    18  N   -0.086063
    19  C    0.478612
    20  H   -0.000746
    21  H   -0.001346
    22  H   -0.002995
    23  H    0.002526
    24  H   -0.000889
    25  H    0.523600
 Mulliken charges:
               1
     1  C   -0.884481
     2  C    0.947301
     3  C   -0.258568
     4  C   -0.575455
     5  O   -0.272288
     6  O   -0.056424
     7  H    0.187984
     8  H    0.146640
     9  H    0.196283
    10  H    0.150788
    11  H    0.185672
    12  H    0.218403
    13  C   -0.291075
    14  C   -0.137002
    15  N    0.281725
    16  C   -0.393777
    17  C   -0.062535
    18  N   -0.176592
    19  C   -0.172988
    20  H    0.139729
    21  H    0.167920
    22  H    0.199691
    23  H    0.161666
    24  H    0.137169
    25  H    0.160213
 Sum of Mulliken charges =  -0.00000
 Mulliken charges with hydrogens summed into heavy atoms:
               1
     1  C   -0.353574
     2  C    0.947301
     3  C    0.077892
     4  C   -0.575455
     5  O   -0.272288
     6  O    0.161979
    13  C    0.016573
    14  C    0.062690
    15  N    0.281725
    16  C   -0.232112
    17  C    0.074634
    18  N   -0.176592
    19  C   -0.012774
 DipInt: DoE/N= T F RetVal/Mat= T F Init=T NMatP=  1 IDeriv=0 Min/MaxMlt=  0  4
 Entering OneElI...
 OneElI was handed 25769427713 working-precision words.
 Multipole integrals L=0 to 4 MinM= 0 MaxM= 0.
 Requested accuracy = 0.1000D-12
 ShPair: Thresh= 1.00D-13 NBox=     0 BxSize= 0.00D+00 RnKept= 1.75D+01
         NSMCal=                 9591 NSMKep=                8518
 PrmmSu-InSpLW:  IPartL=    0 NPrtUS=    1 NPrtUL=    1 DoSpLW=F IThBeg=    0 IThEnd=    0 NThAct=    1.
 PrsmSu:  NPrtUS=   1 ThrOK=F IAlg=1 NPAlg=1 LenDen=           0 ISkipM=0 DoSpLW=F IThBeg=    0 IThEnd=    0.
 Prism:   IPart=     0 DynPar=F LinDyn=F Incr=          85.
 PRISM was handed 25768865846 working-precision words and  8518 shell-pairs
 IPart=  0 NShTot=        8518 NBatch=         100 AvBLen=        85.2
 PrsmSu-ThDecC:  IPartSL=    0    0 NPrtUSL=    1    1 IThBeg=    0 IThEnd=    0 CPU=   -1 GPU=   -1 NThAct=    1.
 PrSmSu:  NxtVal=             86.
 Electronic moments (au):
        -96.00000000          1.36087271         -1.01249281          0.34705738
      -2179.36237535       -494.41986573       -322.31962985         11.34997616
         -0.48504978         -2.91573450      -2514.09948671       -149.47956860
        -78.80449954        875.29006638       -963.84912845      -1256.30178386
        182.61124816        127.51323452        143.73284124        -78.15490944
     -90090.32256667      -5936.19552291      -2905.92694536      -7281.31274242
      -1325.68039903       1290.29178150       -280.31797807        775.87725865
        105.98973667      -9614.54532935      -7270.45950391      -1300.54257194
       -741.67952926       -196.50929566       -176.48247198
 Electronic spatial extent (au):  <R**2>=           2996.1019
 DipInt: DoE/N= F T RetVal/Mat= T F Init=T NMatP=  1 IDeriv=0 Min/MaxMlt=  0  4
 Nuclear    moments (au):
         96.00000000         -0.00000000          0.00000000          0.00000000
       2128.66143516        428.28495001        267.79051409          0.00000000
          0.00000000          0.00000000       2562.73825065        142.51160534
         72.62079930       -854.74388473        947.67905965       1264.00430234
       -183.35479146       -124.51518632       -137.03315882         76.07241548
      82465.17647600       4058.34287486       1800.56628493       7576.69480802
       1351.44138443      -1143.37223309        207.47636020       -808.09547914
       -118.03249815       7911.78744450       5856.22094617        798.34389715
        654.14392284        170.14098679        172.85932623
 Total      moments (au):
         -0.00000000          1.36087271         -1.01249281          0.34705738
        -50.70094019        -66.13491572        -54.52911575         11.34997616
         -0.48504978         -2.91573450         48.63876394         -6.96796326
         -6.18370024         20.54618165        -16.17006880          7.70251848
         -0.74354330          2.99804820          6.69968242         -2.08249396
      -7625.14609067      -1877.85264805      -1105.36066042        295.38206560
         25.76098540        146.91954841        -72.84161787        -32.21822049
        -12.04276149      -1702.75788486      -1414.23855774       -502.19867478
        -87.53560643        -26.36830888         -3.62314575
 Traceless Quadrup. (au):
          6.42071703         -9.01325850          2.59254147         11.34997616
         -0.48504978         -2.91573450
 Charge=             -0.0000 electrons
 Dipole moment (field-independent basis, Debye):
    X=              3.4590    Y=             -2.5735    Z=              0.8821  Tot=              4.4006
 Quadrupole moment (field-independent basis, Debye-Ang):
   XX=            -68.1945   YY=            -88.9537   ZZ=            -73.3435
   XY=             15.2661   XZ=             -0.6524   YZ=             -3.9218
 Traceless Quadrupole moment (field-independent basis, Debye-Ang):
   XX=              8.6361   YY=            -12.1231   ZZ=              3.4871
   XY=             15.2661   XZ=             -0.6524   YZ=             -3.9218
 Octapole moment (field-independent basis, Debye-Ang**2):
  XXX=             34.6192  YYY=             -4.9595  ZZZ=             -4.4013  XYY=             14.6240
  XXY=            -11.5092  XXZ=              5.4824  XZZ=             -0.5292  YZZ=              2.1339
  YYZ=              4.7686  XYZ=             -1.4822
 Hexadecapole moment (field-independent basis, Debye-Ang**3):
 XXXX=          -2871.9957 YYYY=           -707.2894 ZZZZ=           -416.3318 XXXY=            111.2550
 XXXZ=              9.7028 YYYX=             55.3369 YYYZ=            -27.4356 ZZZX=            -12.1349
 ZZZY=             -4.5359 XXYY=           -641.3403 XXZZ=           -532.6701 YYZZ=           -189.1521
 XXYZ=            -32.9701 YYXZ=             -9.9316 ZZXY=             -1.3647
 N-N= 7.689746414473D+02 E-N=-2.961594343411D+03  KE= 6.083638279635D+02
 Entering OneElI...
 OneElI was handed 25769510018 working-precision words.
 Calculate electrostatic properties
    NBasis =   370  MinDer = 0  MaxDer = 0
    NGrid  =    25  NMatD  =   1
 Requested accuracy = 0.1000D-12
 ShPair: Thresh= 1.00D-13 NBox=     0 BxSize= 0.00D+00 RnKept= 1.75D+01
         NSMCal=                 9591 NSMKep=                7979
 PrmmSu-InSpLW:  IPartL=    0 NPrtUS=   48 NPrtUL=    1 DoSpLW=F IThBeg=    0 IThEnd=   47 NThAct=   48.
 PrsmSu:  NPrtUS=  48 ThrOK=T IAlg=1 NPAlg=1 LenDen=           0 ISkipM=0 DoSpLW=F IThBeg=    0 IThEnd=   47.
 Prism:   IPart=     0 DynPar=F LinDyn=F Incr=          41.
 PRISM was handed   536697030 working-precision words and  7979 shell-pairs
 PRISM was handed   536697030 working-precision words and  7979 shell-pairs
 PRISM was handed   536697030 working-precision words and  7979 shell-pairs
 PRISM was handed   536697030 working-precision words and  7979 shell-pairs
 PRISM was handed   536697030 working-precision words and  7979 shell-pairs
 PRISM was handed   536697030 working-precision words and  7979 shell-pairs
 PRISM was handed   536697030 working-precision words and  7979 shell-pairs
 PRISM was handed   536697030 working-precision words and  7979 shell-pairs
 PRISM was handed   536697030 working-precision words and  7979 shell-pairs
 PRISM was handed   536697030 working-precision words and  7979 shell-pairs
 PRISM was handed   536697030 working-precision words and  7979 shell-pairs
 PRISM was handed   536697030 working-precision words and  7979 shell-pairs
 PRISM was handed   536697030 working-precision words and  7979 shell-pairs
 PRISM was handed   536697030 working-precision words and  7979 shell-pairs
 PRISM was handed   536697030 working-precision words and  7979 shell-pairs
 PRISM was handed   536697030 working-precision words and  7979 shell-pairs
 PRISM was handed   536697030 working-precision words and  7979 shell-pairs
 PRISM was handed   536697030 working-precision words and  7979 shell-pairs
 PRISM was handed   536697030 working-precision words and  7979 shell-pairs
 PRISM was handed   536697030 working-precision words and  7979 shell-pairs
 PRISM was handed   536697030 working-precision words and  7979 shell-pairs
 PRISM was handed   536697030 working-precision words and  7979 shell-pairs
 PRISM was handed   536697030 working-precision words and  7979 shell-pairs
 PRISM was handed   536697030 working-precision words and  7979 shell-pairs
 PRISM was handed   536697030 working-precision words and  7979 shell-pairs
 PRISM was handed   536697030 working-precision words and  7979 shell-pairs
 PRISM was handed   536697030 working-precision words and  7979 shell-pairs
 PRISM was handed   536697030 working-precision words and  7979 shell-pairs
 PRISM was handed   536697030 working-precision words and  7979 shell-pairs
 PRISM was handed   536697030 working-precision words and  7979 shell-pairs
 PRISM was handed   536697030 working-precision words and  7979 shell-pairs
 PRISM was handed   536697030 working-precision words and  7979 shell-pairs
 PRISM was handed   536697030 working-precision words and  7979 shell-pairs
 PRISM was handed   536697030 working-precision words and  7979 shell-pairs
 PRISM was handed   536697030 working-precision words and  7979 shell-pairs
 PRISM was handed   536697030 working-precision words and  7979 shell-pairs
 PRISM was handed   536697030 working-precision words and  7979 shell-pairs
 PRISM was handed   536697030 working-precision words and  7979 shell-pairs
 PRISM was handed   536697030 working-precision words and  7979 shell-pairs
 PRISM was handed   536697030 working-precision words and  7979 shell-pairs
 PRISM was handed   536697030 working-precision words and  7979 shell-pairs
 PRISM was handed   536697030 working-precision words and  7979 shell-pairs
 PRISM was handed   536697030 working-precision words and  7979 shell-pairs
 PRISM was handed   536697030 working-precision words and  7979 shell-pairs
 PRISM was handed   536697030 working-precision words and  7979 shell-pairs
 PRISM was handed   536697030 working-precision words and  7979 shell-pairs
 PRISM was handed   536697030 working-precision words and  7979 shell-pairs
 PRISM was handed   536697030 working-precision words and  7979 shell-pairs
 IPart=  0 NShTot=        5075 NBatch=         203 AvBLen=        25.0
 PrsmSu-ThDecC:  IPartSL=    0    0 NPrtUSL=   48    1 IThBeg=    0 IThEnd=   47 CPU=   -1 GPU=   -1 NThAct=   48.
 IPart= 44 NShTot=        3775 NBatch=         151 AvBLen=        25.0
 PrsmSu-ThDecC:  IPartSL=   44    0 NPrtUSL=   48    1 IThBeg=    0 IThEnd=   47 CPU=   -1 GPU=   -1 NThAct=   47.
 IPart=  6 NShTot=        4650 NBatch=         186 AvBLen=        25.0
 PrsmSu-ThDecC:  IPartSL=    6    0 NPrtUSL=   48    1 IThBeg=    0 IThEnd=   47 CPU=   -1 GPU=   -1 NThAct=   46.
 IPart= 17 NShTot=        4150 NBatch=         166 AvBLen=        25.0
 PrsmSu-ThDecC:  IPartSL=   17    0 NPrtUSL=   48    1 IThBeg=    0 IThEnd=   47 CPU=   -1 GPU=   -1 NThAct=   45.
 IPart= 16 NShTot=        4175 NBatch=         167 AvBLen=        25.0
 PrsmSu-ThDecC:  IPartSL=   16    0 NPrtUSL=   48    1 IThBeg=    0 IThEnd=   47 CPU=   -1 GPU=   -1 NThAct=   44.
 IPart= 43 NShTot=        3800 NBatch=         152 AvBLen=        25.0
 PrsmSu-ThDecC:  IPartSL=   43    0 NPrtUSL=   48    1 IThBeg=    0 IThEnd=   47 CPU=   -1 GPU=   -1 NThAct=   43.
 IPart= 41 NShTot=        3825 NBatch=         153 AvBLen=        25.0
 PrsmSu-ThDecC:  IPartSL=   41    0 NPrtUSL=   48    1 IThBeg=    0 IThEnd=   47 CPU=   -1 GPU=   -1 NThAct=   42.
 IPart= 22 NShTot=        4075 NBatch=         163 AvBLen=        25.0
 PrsmSu-ThDecC:  IPartSL=   22    0 NPrtUSL=   48    1 IThBeg=    0 IThEnd=   47 CPU=   -1 GPU=   -1 NThAct=   41.
 IPart= 35 NShTot=        3875 NBatch=         155 AvBLen=        25.0
 PrsmSu-ThDecC:  IPartSL=   35    0 NPrtUSL=   48    1 IThBeg=    0 IThEnd=   47 CPU=   -1 GPU=   -1 NThAct=   40.
 IPart= 15 NShTot=        4200 NBatch=         168 AvBLen=        25.0
 PrsmSu-ThDecC:  IPartSL=   15    0 NPrtUSL=   48    1 IThBeg=    0 IThEnd=   47 CPU=   -1 GPU=   -1 NThAct=   39.
 IPart= 13 NShTot=        4275 NBatch=         171 AvBLen=        25.0
 PrsmSu-ThDecC:  IPartSL=   13    0 NPrtUSL=   48    1 IThBeg=    0 IThEnd=   47 CPU=   -1 GPU=   -1 NThAct=   38.
 IPart= 26 NShTot=        4000 NBatch=         160 AvBLen=        25.0
 PrsmSu-ThDecC:  IPartSL=   26    0 NPrtUSL=   48    1 IThBeg=    0 IThEnd=   47 CPU=   -1 GPU=   -1 NThAct=   37.
 IPart= 42 NShTot=        3800 NBatch=         152 AvBLen=        25.0
 PrsmSu-ThDecC:  IPartSL=   42    0 NPrtUSL=   48    1 IThBeg=    0 IThEnd=   47 CPU=   -1 GPU=   -1 NThAct=   36.
 IPart= 30 NShTot=        3975 NBatch=         159 AvBLen=        25.0
 PrsmSu-ThDecC:  IPartSL=   30    0 NPrtUSL=   48    1 IThBeg=    0 IThEnd=   47 CPU=   -1 GPU=   -1 NThAct=   35.
 IPart= 45 NShTot=        3750 NBatch=         150 AvBLen=        25.0
 PrsmSu-ThDecC:  IPartSL=   45    0 NPrtUSL=   48    1 IThBeg=    0 IThEnd=   47 CPU=   -1 GPU=   -1 NThAct=   34.
 IPart=  5 NShTot=        4700 NBatch=         188 AvBLen=        25.0
 PrsmSu-ThDecC:  IPartSL=    5    0 NPrtUSL=   48    1 IThBeg=    0 IThEnd=   47 CPU=   -1 GPU=   -1 NThAct=   33.
 IPart= 47 NShTot=        3725 NBatch=         149 AvBLen=        25.0
 PrsmSu-ThDecC:  IPartSL=   47    0 NPrtUSL=   48    1 IThBeg=    0 IThEnd=   47 CPU=   -1 GPU=   -1 NThAct=   32.
 IPart= 11 NShTot=        4425 NBatch=         177 AvBLen=        25.0
 PrsmSu-ThDecC:  IPartSL=   11    0 NPrtUSL=   48    1 IThBeg=    0 IThEnd=   47 CPU=   -1 GPU=   -1 NThAct=   31.
 IPart=  7 NShTot=        4575 NBatch=         183 AvBLen=        25.0
 PrsmSu-ThDecC:  IPartSL=    7    0 NPrtUSL=   48    1 IThBeg=    0 IThEnd=   47 CPU=   -1 GPU=   -1 NThAct=   30.
 IPart= 24 NShTot=        4075 NBatch=         163 AvBLen=        25.0
 PrsmSu-ThDecC:  IPartSL=   24    0 NPrtUSL=   48    1 IThBeg=    0 IThEnd=   47 CPU=   -1 GPU=   -1 NThAct=   29.
 IPart= 19 NShTot=        4125 NBatch=         165 AvBLen=        25.0
 PrsmSu-ThDecC:  IPartSL=   19    0 NPrtUSL=   48    1 IThBeg=    0 IThEnd=   47 CPU=   -1 GPU=   -1 NThAct=   28.
 IPart= 28 NShTot=        3975 NBatch=         159 AvBLen=        25.0
 PrsmSu-ThDecC:  IPartSL=   28    0 NPrtUSL=   48    1 IThBeg=    0 IThEnd=   47 CPU=   -1 GPU=   -1 NThAct=   27.
 IPart= 39 NShTot=        3825 NBatch=         153 AvBLen=        25.0
 PrsmSu-ThDecC:  IPartSL=   39    0 NPrtUSL=   48    1 IThBeg=    0 IThEnd=   47 CPU=   -1 GPU=   -1 NThAct=   26.
 IPart= 37 NShTot=        3825 NBatch=         153 AvBLen=        25.0
 PrsmSu-ThDecC:  IPartSL=   37    0 NPrtUSL=   48    1 IThBeg=    0 IThEnd=   47 CPU=   -1 GPU=   -1 NThAct=   25.
 IPart= 14 NShTot=        4200 NBatch=         168 AvBLen=        25.0
 PrsmSu-ThDecC:  IPartSL=   14    0 NPrtUSL=   48    1 IThBeg=    0 IThEnd=   47 CPU=   -1 GPU=   -1 NThAct=   24.
 IPart= 23 NShTot=        4075 NBatch=         163 AvBLen=        25.0
 PrsmSu-ThDecC:  IPartSL=   23    0 NPrtUSL=   48    1 IThBeg=    0 IThEnd=   47 CPU=   -1 GPU=   -1 NThAct=   23.
 IPart= 33 NShTot=        3925 NBatch=         157 AvBLen=        25.0
 PrsmSu-ThDecC:  IPartSL=   33    0 NPrtUSL=   48    1 IThBeg=    0 IThEnd=   47 CPU=   -1 GPU=   -1 NThAct=   22.
 IPart= 36 NShTot=        3850 NBatch=         154 AvBLen=        25.0
 PrsmSu-ThDecC:  IPartSL=   36    0 NPrtUSL=   48    1 IThBeg=    0 IThEnd=   47 CPU=   -1 GPU=   -1 NThAct=   21.
 IPart=  3 NShTot=        4800 NBatch=         192 AvBLen=        25.0
 PrsmSu-ThDecC:  IPartSL=    3    0 NPrtUSL=   48    1 IThBeg=    0 IThEnd=   47 CPU=   -1 GPU=   -1 NThAct=   20.
 IPart= 31 NShTot=        3975 NBatch=         159 AvBLen=        25.0
 PrsmSu-ThDecC:  IPartSL=   31    0 NPrtUSL=   48    1 IThBeg=    0 IThEnd=   47 CPU=   -1 GPU=   -1 NThAct=   19.
 IPart= 40 NShTot=        3825 NBatch=         153 AvBLen=        25.0
 PrsmSu-ThDecC:  IPartSL=   40    0 NPrtUSL=   48    1 IThBeg=    0 IThEnd=   47 CPU=   -1 GPU=   -1 NThAct=   18.
 IPart= 21 NShTot=        4100 NBatch=         164 AvBLen=        25.0
 PrsmSu-ThDecC:  IPartSL=   21    0 NPrtUSL=   48    1 IThBeg=    0 IThEnd=   47 CPU=   -1 GPU=   -1 NThAct=   17.
 IPart= 38 NShTot=        3825 NBatch=         153 AvBLen=        25.0
 PrsmSu-ThDecC:  IPartSL=   38    0 NPrtUSL=   48    1 IThBeg=    0 IThEnd=   47 CPU=   -1 GPU=   -1 NThAct=   16.
 IPart= 10 NShTot=        4450 NBatch=         178 AvBLen=        25.0
 PrsmSu-ThDecC:  IPartSL=   10    0 NPrtUSL=   48    1 IThBeg=    0 IThEnd=   47 CPU=   -1 GPU=   -1 NThAct=   15.
 IPart= 25 NShTot=        4050 NBatch=         162 AvBLen=        25.0
 PrsmSu-ThDecC:  IPartSL=   25    0 NPrtUSL=   48    1 IThBeg=    0 IThEnd=   47 CPU=   -1 GPU=   -1 NThAct=   14.
 IPart= 46 NShTot=        3750 NBatch=         150 AvBLen=        25.0
 PrsmSu-ThDecC:  IPartSL=   46    0 NPrtUSL=   48    1 IThBeg=    0 IThEnd=   47 CPU=   -1 GPU=   -1 NThAct=   13.
 IPart= 27 NShTot=        3975 NBatch=         159 AvBLen=        25.0
 PrsmSu-ThDecC:  IPartSL=   27    0 NPrtUSL=   48    1 IThBeg=    0 IThEnd=   47 CPU=   -1 GPU=   -1 NThAct=   12.
 IPart= 32 NShTot=        3925 NBatch=         157 AvBLen=        25.0
 PrsmSu-ThDecC:  IPartSL=   32    0 NPrtUSL=   48    1 IThBeg=    0 IThEnd=   47 CPU=   -1 GPU=   -1 NThAct=   11.
 IPart= 29 NShTot=        3975 NBatch=         159 AvBLen=        25.0
 PrsmSu-ThDecC:  IPartSL=   29    0 NPrtUSL=   48    1 IThBeg=    0 IThEnd=   47 CPU=   -1 GPU=   -1 NThAct=   10.
 IPart= 20 NShTot=        4125 NBatch=         165 AvBLen=        25.0
 PrsmSu-ThDecC:  IPartSL=   20    0 NPrtUSL=   48    1 IThBeg=    0 IThEnd=   47 CPU=   -1 GPU=   -1 NThAct=    9.
 IPart= 34 NShTot=        3900 NBatch=         156 AvBLen=        25.0
 IPart= 12 NShTot=        4425 NBatch=         177 AvBLen=        25.0
 PrsmSu-ThDecC:  IPartSL=   34    0 NPrtUSL=   48    1 IThBeg=    0 IThEnd=   47 CPU=   -1 GPU=   -1 NThAct=    8.
 PrsmSu-ThDecC:  IPartSL=   12    0 NPrtUSL=   48    1 IThBeg=    0 IThEnd=   47 CPU=   -1 GPU=   -1 NThAct=    7.
 IPart= 18 NShTot=        4125 NBatch=         165 AvBLen=        25.0
 IPart=  8 NShTot=        4525 NBatch=         181 AvBLen=        25.0
 PrsmSu-ThDecC:  IPartSL=   18    0 NPrtUSL=   48    1 IThBeg=    0 IThEnd=   47 CPU=   -1 GPU=   -1 NThAct=    6.
 PrsmSu-ThDecC:  IPartSL=    8    0 NPrtUSL=   48    1 IThBeg=    0 IThEnd=   47 CPU=   -1 GPU=   -1 NThAct=    5.
 IPart=  9 NShTot=        4475 NBatch=         179 AvBLen=        25.0
 PrsmSu-ThDecC:  IPartSL=    9    0 NPrtUSL=   48    1 IThBeg=    0 IThEnd=   47 CPU=   -1 GPU=   -1 NThAct=    4.
 IPart=  4 NShTot=        4725 NBatch=         189 AvBLen=        25.0
 PrsmSu-ThDecC:  IPartSL=    4    0 NPrtUSL=   48    1 IThBeg=    0 IThEnd=   47 CPU=   -1 GPU=   -1 NThAct=    3.
 IPart=  1 NShTot=        4950 NBatch=         198 AvBLen=        25.0
 PrsmSu-ThDecC:  IPartSL=    1    0 NPrtUSL=   48    1 IThBeg=    0 IThEnd=   47 CPU=   -1 GPU=   -1 NThAct=    2.
 IPart=  2 NShTot=        4875 NBatch=         195 AvBLen=        25.0
 PrsmSu-ThDecC:  IPartSL=    2    0 NPrtUSL=   48    1 IThBeg=    0 IThEnd=   47 CPU=   -1 GPU=   -1 NThAct=    1.
 PrSmSu:  NxtVal=           1969.
 --------------------------------------------------------
       Center         ----      EFG at Nuclei      ----
                      3XX-RR        3YY-RR        3ZZ-RR
 --------------------------------------------------------
     1   Atom        0.068567     -0.057519     -0.011048
     2   Atom       -0.135651      0.027969      0.107682
     3   Atom       -0.287921      0.173711      0.114210
     4   Atom       -0.197740      0.380563     -0.182823
     5   Atom        0.189386     -0.133009     -0.056377
     6   Atom       -0.112748     -0.228760      0.341508
     7   Atom        0.154271      0.136438     -0.290709
     8   Atom       -0.196341      0.069592      0.126749
     9   Atom       -0.101943     -0.024422      0.126365
    10   Atom        0.122057     -0.204589      0.082532
    11   Atom        0.139385     -0.210200      0.070815
    12   Atom        0.210279     -0.418283      0.208004
    13   Atom        0.107732     -0.043006     -0.064726
    14   Atom       -0.009189     -0.035667      0.044856
    15   Atom        0.120193      0.100568     -0.220760
    16   Atom        0.023353      0.050904     -0.074257
    17   Atom        0.022087      0.024033     -0.046120
    18   Atom       -0.138834      0.098504      0.040329
    19   Atom       -0.006790     -0.052171      0.058961
    20   Atom       -0.171336      0.006316      0.165020
    21   Atom        0.151955     -0.099311     -0.052644
    22   Atom        0.150868     -0.111637     -0.039231
    23   Atom        0.160661      0.083965     -0.244626
    24   Atom       -0.038459     -0.003166      0.041625
    25   Atom        0.098671      0.153523     -0.252194
 --------------------------------------------------------
                        XY            XZ            YZ
 --------------------------------------------------------
     1   Atom       -0.013447      0.010260     -0.078152
     2   Atom        0.035653     -0.193571      0.015453
     3   Atom        0.028441     -0.211702      0.059170
     4   Atom        0.008964     -0.176471      0.050280
     5   Atom        0.635229     -1.112461     -0.670445
     6   Atom        0.350358      1.046620     -0.429970
     7   Atom       -0.014987      0.057148      0.067226
     8   Atom       -0.173842      0.092393      0.038045
     9   Atom        0.214400     -0.085334      0.063788
    10   Atom       -0.128514      0.063565      0.167963
    11   Atom        0.086150      0.050330     -0.180544
    12   Atom        0.155105      0.079328     -0.185780
    13   Atom        0.132690      0.162025     -0.195115
    14   Atom       -0.031813      0.162642     -0.173918
    15   Atom       -0.346110      0.200207     -0.121466
    16   Atom        0.031635      0.182984      0.182086
    17   Atom        0.184251     -0.035757      0.027942
    18   Atom        0.399667      0.414273      0.505632
    19   Atom        0.072071     -0.126305     -0.072097
    20   Atom       -0.228548      0.001622      0.012624
    21   Atom       -0.031470      0.022639      0.243703
    22   Atom       -0.015459     -0.001216      0.241961
    23   Atom       -0.034289     -0.032737     -0.176312
    24   Atom       -0.196295      0.147201      0.135204
    25   Atom       -0.041678      0.156821      0.062290
 --------------------------------------------------------


 ---------------------------------------------------------------------------------
              Nuclear Quadrupole Coupling Constant in Principal Axis System
 ---------------------------------------------------------------------------------

       Atom             a.u.   MegaHertz   Gauss  10(-4) cm-1        Axes

              Baa    -0.3204     1.539     0.549     0.513 -0.5303 -0.1982  0.8243
    15 N(14)  Bbb    -0.2063     0.991     0.354     0.330  0.4791  0.7321  0.4842
              Bcc     0.5267    -2.529    -0.903    -0.844  0.6994 -0.6518  0.2933
 
              Baa    -0.4736     2.275     0.812     0.759  0.7372  0.0781 -0.6711
    18 N(14)  Bbb    -0.4221     2.027     0.723     0.676 -0.4694  0.7737 -0.4255
              Bcc     0.8957    -4.302    -1.535    -1.435  0.4860  0.6287  0.6071
 

 ---------------------------------------------------------------------------------

 No NMR shielding tensors so no spin-rotation constants.
 Leave Link  601 at Thu Apr 21 11:14:41 2022, MaxMem= 25769803776 cpu:              11.2 elap:               0.3
 Calling FoFJK, ICntrl=      2127 FMM=F ISym2X=0 I1Cent= 0 IOpClX= 0 NMat=1 NMatS=1 NMatT=0.
 ***** Axes restored to original set *****
 -------------------------------------------------------------------
 Center     Atomic                   Forces (Hartrees/Bohr)
 Number     Number              X              Y              Z
 -------------------------------------------------------------------
      1        6           0.009345191    0.008771645   -0.008549491
      2        6           0.015423578   -0.036422795   -0.029749264
      3        6          -0.036258337    0.007645221    0.037189701
      4        6           0.006044743    0.045174070   -0.004727578
      5        8           0.045003832    0.017275674    0.020289884
      6        8          -0.016915422   -0.021485784    0.000380948
      7        1           0.008818490    0.000240817    0.010470732
      8        1          -0.014022869   -0.016880287    0.000639800
      9        1           0.005767237    0.004303588   -0.005019688
     10        1          -0.000521020   -0.001145751    0.000401915
     11        1           0.007978968    0.005297014   -0.010965170
     12        1          -0.031336970   -0.014745293   -0.011732039
     13        6           0.003416225    0.029449094    0.050014530
     14        6          -0.077738193    0.082698320   -0.052650090
     15        7           0.100301892   -0.077855168   -0.017324941
     16        6           0.010386280    0.018058822   -0.016053589
     17        6          -0.004880323   -0.008254227    0.027309695
     18        7          -0.025240509    0.000643172   -0.022728628
     19        6           0.010324851   -0.054367238    0.040422549
     20        1          -0.002746563    0.004224602   -0.009044044
     21        1          -0.004064092   -0.007444421    0.000626829
     22        1          -0.004694422    0.007417778   -0.000450144
     23        1          -0.006727940    0.001603493   -0.001100218
     24        1           0.003020696    0.006522172    0.002264778
     25        1          -0.000685322   -0.000724517    0.000083524
 -------------------------------------------------------------------
 Cartesian Forces:  Max     0.100301892 RMS     0.027452633

 GradGradGradGradGradGradGradGradGradGradGradGradGradGradGradGradGradGrad
 Berny optimization.
 FormGI is forming the generalized inverse of G from B-inverse, IUseBI=4.
 Internal  Forces:  Max     0.143004409 RMS     0.020139728
 Search for a local minimum.
 Step number   1 out of a maximum of  118
 All quantities printed in internal units (Hartrees-Bohrs-Radians)
 Mixed Optimization -- RFO/linear search
 Second derivative matrix not updated -- first step.
 ITU=  0
     Eigenvalues ---    0.00230   0.00232   0.00264   0.00371   0.01204
     Eigenvalues ---    0.01284   0.01820   0.01865   0.01901   0.02190
     Eigenvalues ---    0.02251   0.02465   0.02495   0.02514   0.02515
     Eigenvalues ---    0.02636   0.02644   0.02703   0.02746   0.02872
     Eigenvalues ---    0.03093   0.05175   0.06930   0.11654   0.14053
     Eigenvalues ---    0.15713   0.15813   0.15935   0.15966   0.16000
     Eigenvalues ---    0.16000   0.16000   0.16000   0.16000   0.16000
     Eigenvalues ---    0.16000   0.16000   0.22044   0.22565   0.23222
     Eigenvalues ---    0.24462   0.24723   0.24844   0.24885   0.25000
     Eigenvalues ---    0.28704   0.34790   0.34808   0.34812   0.35983
     Eigenvalues ---    0.35999   0.35999   0.36016   0.36027   0.36030
     Eigenvalues ---    0.36032   0.36069   0.36861   0.42138   0.44937
     Eigenvalues ---    0.49292   0.50675   0.51108   0.55895   0.58806
     Eigenvalues ---    0.59841   0.60253   0.68865   1.09612
 RFO step:  Lambda=-9.40689552D-02 EMin= 2.30000000D-03
 Linear search not attempted -- first point.
 Maximum step size (   0.300) exceeded in Quadratic search.
    -- Step size scaled by   0.692
 Iteration  1 RMS(Cart)=  0.18979531 RMS(Int)=  0.00687028
 Iteration  2 RMS(Cart)=  0.01539248 RMS(Int)=  0.00045932
 Iteration  3 RMS(Cart)=  0.00013068 RMS(Int)=  0.00045416
 Iteration  4 RMS(Cart)=  0.00000007 RMS(Int)=  0.00045416
 Variable       Old X    -DE/DX   Delta X   Delta X   Delta X     New X
                                 (Linear)    (Quad)   (Total)
    R1        2.90624  -0.00366   0.00000  -0.00665  -0.00665   2.89959
    R2        2.05988   0.00088   0.00000   0.00138   0.00138   2.06126
    R3        2.05981  -0.00093   0.00000  -0.00146  -0.00146   2.05835
    R4        2.06018  -0.00051   0.00000  -0.00080  -0.00080   2.05938
    R5        2.59190  -0.03552   0.00000  -0.04090  -0.04090   2.55100
    R6        2.76056   0.01877   0.00000   0.02807   0.02807   2.78862
    R7        2.04032   0.00020   0.00000   0.00030   0.00030   2.04062
    R8        2.04057   0.00354   0.00000   0.00540   0.00540   2.04596
    R9        2.25019   0.04631   0.00000   0.02692   0.02692   2.27711
   R10        2.51066   0.04063   0.00000   0.04059   0.04059   2.55125
   R11        1.78598   0.03035   0.00000   0.03078   0.03078   1.81676
   R12        4.28646   0.00044   0.00000   0.00271   0.00271   4.28917
   R13        2.58763  -0.02604   0.00000  -0.02977  -0.02977   2.55786
   R14        2.04083   0.00440   0.00000   0.00670   0.00670   2.04753
   R15        2.04083  -0.00020   0.00000  -0.00031  -0.00031   2.04052
   R16        2.44545   0.14300   0.00000   0.12638   0.12638   2.57183
   R17        2.04040   0.00297   0.00000   0.00452   0.00452   2.04491
   R18        2.64978  -0.00485   0.00000  -0.00467  -0.00455   2.64523
   R19        2.48833   0.05181   0.00000   0.05155   0.05164   2.53996
   R20        2.56154   0.01145   0.00000   0.01111   0.01108   2.57263
   R21        2.04108  -0.00195   0.00000  -0.00297  -0.00297   2.03811
   R22        2.62940   0.00167   0.00000  -0.00031  -0.00041   2.62899
   R23        2.04035  -0.00108   0.00000  -0.00165  -0.00165   2.03870
   R24        2.52863  -0.01844   0.00000  -0.01887  -0.01895   2.50967
   R25        2.03973   0.00072   0.00000   0.00109   0.00109   2.04083
    A1        2.05764  -0.01046   0.00000  -0.03635  -0.03653   2.02111
    A2        1.71068   0.02731   0.00000   0.08654   0.08725   1.79793
    A3        2.02072  -0.01876   0.00000  -0.04950  -0.04974   1.97098
    A4        1.99541  -0.01156   0.00000  -0.03504  -0.03456   1.96085
    A5        1.75762   0.01491   0.00000   0.03344   0.03231   1.78993
    A6        1.93221  -0.00418   0.00000  -0.00555  -0.00463   1.92758
    A7        2.07064   0.01557   0.00000   0.03193   0.03189   2.10253
    A8        2.11085  -0.00426   0.00000  -0.00813  -0.00819   2.10266
    A9        2.09512  -0.01096   0.00000  -0.02155  -0.02163   2.07349
   A10        2.17090  -0.00964   0.00000  -0.02553  -0.02577   2.14513
   A11        1.95581   0.01780   0.00000   0.04919   0.04894   2.00475
   A12        2.15039  -0.00741   0.00000  -0.01945  -0.01970   2.13068
   A13        2.15419  -0.00243   0.00000  -0.00079  -0.00191   2.15228
   A14        2.12147  -0.03456   0.00000  -0.06489  -0.06591   2.05556
   A15        1.98167   0.03955   0.00000   0.08456   0.08362   2.06529
   A16        1.79634   0.03619   0.00000   0.09853   0.09853   1.89487
   A17        2.25470  -0.00717   0.00000  -0.01952  -0.01952   2.23518
   A18        2.00075   0.01475   0.00000   0.04168   0.04142   2.04217
   A19        2.16097  -0.00866   0.00000  -0.02206  -0.02233   2.13864
   A20        2.09503  -0.00443   0.00000  -0.01049  -0.01076   2.08427
   A21        1.98612   0.04882   0.00000   0.10883   0.10835   2.09447
   A22        2.22586  -0.03149   0.00000  -0.07176  -0.07241   2.15345
   A23        2.04713  -0.01488   0.00000  -0.02545  -0.02581   2.02132
   A24        2.22776  -0.00330   0.00000  -0.01012  -0.01001   2.21775
   A25        2.20764   0.00283   0.00000   0.00244   0.00255   2.21018
   A26        1.83569   0.00093   0.00000   0.01039   0.01004   1.84573
   A27        1.87828  -0.01054   0.00000  -0.02131  -0.02175   1.85652
   A28        2.13981  -0.00041   0.00000  -0.00509  -0.00492   2.13489
   A29        2.26287   0.01076   0.00000   0.02535   0.02549   2.28836
   A30        1.88468   0.01600   0.00000   0.03158   0.03096   1.91564
   A31        2.30418  -0.01321   0.00000  -0.02954  -0.02931   2.27488
   A32        2.09216  -0.00260   0.00000  -0.00075  -0.00054   2.09162
   A33        1.82255   0.00090   0.00000  -0.00007  -0.00107   1.82149
   A34        1.97679  -0.00403   0.00000  -0.00169  -0.00264   1.97415
   A35        2.12278   0.00377   0.00000   0.00755   0.00736   2.13014
   A36        2.17154   0.00165   0.00000   0.00193   0.00179   2.17334
   A37        1.79013  -0.00298   0.00000  -0.00811  -0.00811   1.78202
    D1        2.76693   0.00051   0.00000   0.00331   0.00274   2.76967
    D2       -0.25175  -0.00203   0.00000  -0.01625  -0.01705  -0.26879
    D3        0.61944   0.00049   0.00000   0.00289   0.00280   0.62224
    D4       -2.39923  -0.00206   0.00000  -0.01667  -0.01699  -2.41622
    D5       -1.43448  -0.00374   0.00000  -0.02371  -0.02271  -1.45719
    D6        1.83003  -0.00628   0.00000  -0.04327  -0.04250   1.78753
    D7       -0.07259   0.01178   0.00000   0.04535   0.04564  -0.02694
    D8        2.16700  -0.00180   0.00000  -0.00616  -0.00641   2.16059
    D9       -1.99892  -0.00879   0.00000  -0.03069  -0.03073  -2.02965
   D10        0.12243  -0.00167   0.00000  -0.01125  -0.01127   0.11116
   D11       -2.90381  -0.00838   0.00000  -0.05023  -0.05026  -2.95407
   D12       -3.14095   0.00132   0.00000   0.00906   0.00909  -3.13186
   D13        0.11600  -0.00540   0.00000  -0.02992  -0.02991   0.08609
   D14        2.82973  -0.00776   0.00000  -0.04676  -0.04649   2.78324
   D15       -0.56997   0.01025   0.00000   0.05767   0.05701  -0.51296
   D16       -0.18723  -0.01220   0.00000  -0.07034  -0.06969  -0.25692
   D17        2.69625   0.00580   0.00000   0.03408   0.03382   2.73007
   D18        0.12976  -0.00786   0.00000  -0.05406  -0.05517   0.07458
   D19        3.03683   0.00394   0.00000   0.03151   0.03262   3.06945
   D20       -1.40807   0.00994   0.00000   0.07134   0.07134  -1.33673
   D21        3.08309   0.00612   0.00000   0.03073   0.03005   3.11314
   D22        0.18414  -0.00560   0.00000  -0.02698  -0.02635   0.15779
   D23       -0.30431   0.01330   0.00000   0.07177   0.07113  -0.23317
   D24        3.07993   0.00159   0.00000   0.01406   0.01474   3.09466
   D25        1.02510  -0.00365   0.00000  -0.02138  -0.02214   1.00296
   D26       -1.92477  -0.00731   0.00000  -0.04379  -0.04453  -1.96930
   D27       -2.33257   0.00311   0.00000   0.02058   0.02133  -2.31124
   D28        1.00074  -0.00054   0.00000  -0.00182  -0.00107   0.99968
   D29       -2.97130  -0.00392   0.00000  -0.02227  -0.02210  -2.99341
   D30        0.23560  -0.00148   0.00000  -0.00773  -0.00789   0.22771
   D31        0.01088  -0.00060   0.00000  -0.00387  -0.00367   0.00721
   D32       -3.06540   0.00184   0.00000   0.01067   0.01055  -3.05485
   D33        3.11529  -0.00548   0.00000  -0.02938  -0.02931   3.08598
   D34       -0.18568   0.00375   0.00000   0.02175   0.02168  -0.16400
   D35        0.13068  -0.00801   0.00000  -0.04597  -0.04612   0.08456
   D36        3.11289   0.00121   0.00000   0.00516   0.00487   3.11776
   D37       -0.13875   0.00830   0.00000   0.04810   0.04812  -0.09063
   D38        3.07569   0.00487   0.00000   0.02577   0.02567   3.10137
   D39        2.93138   0.00499   0.00000   0.03044   0.03036   2.96174
   D40       -0.13737   0.00155   0.00000   0.00811   0.00792  -0.12945
   D41        0.20970  -0.01066   0.00000  -0.07083  -0.07173   0.13797
   D42       -2.99429  -0.00837   0.00000  -0.05336  -0.05362  -3.04791
   D43        2.55209   0.00492   0.00000   0.03224   0.03217   2.58426
   D44       -0.50958   0.00061   0.00000   0.00688   0.00695  -0.50264
   D45       -0.21383   0.01420   0.00000   0.07734   0.07664  -0.13719
   D46        3.09233   0.00448   0.00000   0.02397   0.02360   3.11592
         Item               Value     Threshold  Converged?
 Maximum Force            0.143004     0.000450     NO 
 RMS     Force            0.020140     0.000300     NO 
 Maximum Displacement     0.596244     0.001800     NO 
 RMS     Displacement     0.198225     0.001200     NO 
 Predicted change in Energy=-4.975706D-02
 GradGradGradGradGradGradGradGradGradGradGradGradGradGradGradGradGradGrad

                          Input orientation:                          
[...]
          7.74400964      -2277.25371569      -2140.07132200       -402.55882296
        -84.42318199         14.06910782        -30.10199110
 Traceless Quadrup. (au):
          3.41560639         -0.74698272         -2.66862367         11.79669481
          0.69589501         -1.03380262
 Charge=              0.0000 electrons
 Dipole moment (field-independent basis, Debye):
    X=              7.2290    Y=             -3.9642    Z=              0.0507  Tot=              8.2447
 Quadrupole moment (field-independent basis, Debye-Ang):
   XX=            -72.4981   YY=            -78.0970   ZZ=            -80.6816
   XY=             15.8670   XZ=              0.9360   YZ=             -1.3905
 Traceless Quadrupole moment (field-independent basis, Debye-Ang):
   XX=              4.5941   YY=             -1.0047   ZZ=             -3.5894
   XY=             15.8670   XZ=              0.9360   YZ=             -1.3905
 Octapole moment (field-independent basis, Debye-Ang**2):
  XXX=            121.2270  YYY=            -12.8086  ZZZ=             -3.6705  XYY=             37.9743
  XXY=            -41.2386  XXZ=             10.2400  XZZ=            -18.5840  YZZ=              4.4551
  YYZ=              0.1501  XYZ=             -3.0725
 Hexadecapole moment (field-independent basis, Debye-Ang**3):
 XXXX=          -4237.5964 YYYY=           -658.5703 ZZZZ=           -202.1038 XXXY=            178.0016
 XXXZ=              6.9435 YYYX=             56.5453 YYYZ=            -12.0123 ZZZX=             -3.7134
 ZZZY=              2.9168 XXYY=           -857.7229 XXZZ=           -806.0535 YYZZ=           -151.6230
 XXYZ=            -31.7978 YYXZ=              5.2991 ZZXY=            -11.3379
 N-N= 7.343540429671D+02 E-N=-2.892095481820D+03  KE= 6.078899645406D+02
 Entering OneElI...
 OneElI was handed 25769510018 working-precision words.
 Calculate electrostatic properties
    NBasis =   370  MinDer = 0  MaxDer = 0
    NGrid  =    25  NMatD  =   1
 Requested accuracy = 0.1000D-12
 ShPair: Thresh= 1.00D-13 NBox=     0 BxSize= 0.00D+00 RnKept= 2.05D+01
         NSMCal=                 9591 NSMKep=                7649
 PrmmSu-InSpLW:  IPartL=    0 NPrtUS=   48 NPrtUL=    1 DoSpLW=F IThBeg=    0 IThEnd=   47 NThAct=   48.
 PrsmSu:  NPrtUS=  48 ThrOK=T IAlg=1 NPAlg=1 LenDen=           0 ISkipM=0 DoSpLW=F IThBeg=    0 IThEnd=   47.
 Prism:   IPart=     0 DynPar=F LinDyn=F Incr=          39.
 PRISM was handed   536703479 working-precision words and  7649 shell-pairs
 PRISM was handed   536703479 working-precision words and  7649 shell-pairs
 PRISM was handed   536703479 working-precision words and  7649 shell-pairs
 PRISM was handed   536703479 working-precision words and  7649 shell-pairs
 PRISM was handed   536703479 working-precision words and  7649 shell-pairs
 PRISM was handed   536703479 working-precision words and  7649 shell-pairs
 PRISM was handed   536703479 working-precision words and  7649 shell-pairs
 PRISM was handed   536703479 working-precision words and  7649 shell-pairs
 PRISM was handed   536703479 working-precision words and  7649 shell-pairs
 PRISM was handed   536703479 working-precision words and  7649 shell-pairs
 PRISM was handed   536703479 working-precision words and  7649 shell-pairs
 PRISM was handed   536703479 working-precision words and  7649 shell-pairs
 PRISM was handed   536703479 working-precision words and  7649 shell-pairs
 PRISM was handed   536703479 working-precision words and  7649 shell-pairs
 PRISM was handed   536703479 working-precision words and  7649 shell-pairs
 PRISM was handed   536703479 working-precision words and  7649 shell-pairs
 PRISM was handed   536703479 working-precision words and  7649 shell-pairs
 PRISM was handed   536703479 working-precision words and  7649 shell-pairs
 PRISM was handed   536703479 working-precision words and  7649 shell-pairs
 PRISM was handed   536703479 working-precision words and  7649 shell-pairs
 PRISM was handed   536703479 working-precision words and  7649 shell-pairs
 PRISM was handed   536703479 working-precision words and  7649 shell-pairs
 PRISM was handed   536703479 working-precision words and  7649 shell-pairs
 PRISM was handed   536703479 working-precision words and  7649 shell-pairs
 PRISM was handed   536703479 working-precision words and  7649 shell-pairs
 PRISM was handed   536703479 working-precision words and  7649 shell-pairs
 PRISM was handed   536703479 working-precision words and  7649 shell-pairs
 PRISM was handed   536703479 working-precision words and  7649 shell-pairs
 PRISM was handed   536703479 working-precision words and  7649 shell-pairs
 PRISM was handed   536703479 working-precision words and  7649 shell-pairs
 PRISM was handed   536703479 working-precision words and  7649 shell-pairs
 PRISM was handed   536703479 working-precision words and  7649 shell-pairs
 PRISM was handed   536703479 working-precision words and  7649 shell-pairs
 PRISM was handed   536703479 working-precision words and  7649 shell-pairs
 PRISM was handed   536703479 working-precision words and  7649 shell-pairs
 PRISM was handed   536703479 working-precision words and  7649 shell-pairs
 PRISM was handed   536703479 working-precision words and  7649 shell-pairs
 PRISM was handed   536703479 working-precision words and  7649 shell-pairs
 IPart= 24 NShTot=        3825 NBatch=         153 AvBLen=        25.0
 PrsmSu-ThDecC:  IPartSL=   24    0 NPrtUSL=   48    1 IThBeg=    0 IThEnd=   47 CPU=   -1 GPU=   -1 NThAct=   48.
 IPart= 32 NShTot=        3750 NBatch=         150 AvBLen=        25.0
 PrsmSu-ThDecC:  IPartSL=   32    0 NPrtUSL=   48    1 IThBeg=    0 IThEnd=   47 CPU=   -1 GPU=   -1 NThAct=   47.
 IPart= 42 NShTot=        3600 NBatch=         144 AvBLen=        25.0
 PrsmSu-ThDecC:  IPartSL=   42    0 NPrtUSL=   48    1 IThBeg=    0 IThEnd=   47 CPU=   -1 GPU=   -1 NThAct=   46.
 IPart= 22 NShTot=        3875 NBatch=         155 AvBLen=        25.0
 PrsmSu-ThDecC:  IPartSL=   22    0 NPrtUSL=   48    1 IThBeg=    0 IThEnd=   47 CPU=   -1 GPU=   -1 NThAct=   45.
 IPart= 19 NShTot=        3900 NBatch=         156 AvBLen=        25.0
 PrsmSu-ThDecC:  IPartSL=   19    0 NPrtUSL=   48    1 IThBeg=    0 IThEnd=   47 CPU=   -1 GPU=   -1 NThAct=   44.
 IPart=  0 NShTot=        4950 NBatch=         198 AvBLen=        25.0
 PrsmSu-ThDecC:  IPartSL=    0    0 NPrtUSL=   48    1 IThBeg=    0 IThEnd=   47 CPU=   -1 GPU=   -1 NThAct=   43.
 PRISM was handed   536703479 working-precision words and  7649 shell-pairs
 PRISM was handed   536703479 working-precision words and  7649 shell-pairs
 PRISM was handed   536703479 working-precision words and  7649 shell-pairs
 PRISM was handed   536703479 working-precision words and  7649 shell-pairs
 PRISM was handed   536703479 working-precision words and  7649 shell-pairs
 PRISM was handed   536703479 working-precision words and  7649 shell-pairs
 PRISM was handed   536703479 working-precision words and  7649 shell-pairs
 PRISM was handed   536703479 working-precision words and  7649 shell-pairs
 PRISM was handed   536703479 working-precision words and  7649 shell-pairs
 PRISM was handed   536703479 working-precision words and  7649 shell-pairs
 IPart= 31 NShTot=        3775 NBatch=         151 AvBLen=        25.0
 PrsmSu-ThDecC:  IPartSL=   31    0 NPrtUSL=   48    1 IThBeg=    0 IThEnd=   47 CPU=   -1 GPU=   -1 NThAct=   42.
 IPart= 10 NShTot=        4300 NBatch=         172 AvBLen=        25.0
 PrsmSu-ThDecC:  IPartSL=   10    0 NPrtUSL=   48    1 IThBeg=    0 IThEnd=   47 CPU=   -1 GPU=   -1 NThAct=   41.
 IPart=  8 NShTot=        4400 NBatch=         176 AvBLen=        25.0
 PrsmSu-ThDecC:  IPartSL=    8    0 NPrtUSL=   48    1 IThBeg=    0 IThEnd=   47 CPU=   -1 GPU=   -1 NThAct=   40.
 IPart=  5 NShTot=        4625 NBatch=         185 AvBLen=        25.0
 PrsmSu-ThDecC:  IPartSL=    5    0 NPrtUSL=   48    1 IThBeg=    0 IThEnd=   47 CPU=   -1 GPU=   -1 NThAct=   39.
 IPart=  3 NShTot=        4725 NBatch=         189 AvBLen=        25.0
 PrsmSu-ThDecC:  IPartSL=    3    0 NPrtUSL=   48    1 IThBeg=    0 IThEnd=   47 CPU=   -1 GPU=   -1 NThAct=   38.
 IPart= 14 NShTot=        4075 NBatch=         163 AvBLen=        25.0
 PrsmSu-ThDecC:  IPartSL=   14    0 NPrtUSL=   48    1 IThBeg=    0 IThEnd=   47 CPU=   -1 GPU=   -1 NThAct=   37.
 IPart= 18 NShTot=        3925 NBatch=         157 AvBLen=        25.0
 PrsmSu-ThDecC:  IPartSL=   18    0 NPrtUSL=   48    1 IThBeg=    0 IThEnd=   47 CPU=   -1 GPU=   -1 NThAct=   36.
 IPart= 45 NShTot=        3575 NBatch=         143 AvBLen=        25.0
 PrsmSu-ThDecC:  IPartSL=   45    0 NPrtUSL=   48    1 IThBeg=    0 IThEnd=   47 CPU=   -1 GPU=   -1 NThAct=   35.
 IPart= 34 NShTot=        3725 NBatch=         149 AvBLen=        25.0
 PrsmSu-ThDecC:  IPartSL=   34    0 NPrtUSL=   48    1 IThBeg=    0 IThEnd=   47 CPU=   -1 GPU=   -1 NThAct=   34.
 IPart= 28 NShTot=        3800 NBatch=         152 AvBLen=        25.0
 PrsmSu-ThDecC:  IPartSL=   28    0 NPrtUSL=   48    1 IThBeg=    0 IThEnd=   47 CPU=   -1 GPU=   -1 NThAct=   33.
 IPart= 23 NShTot=        3850 NBatch=         154 AvBLen=        25.0
 PrsmSu-ThDecC:  IPartSL=   23    0 NPrtUSL=   48    1 IThBeg=    0 IThEnd=   47 CPU=   -1 GPU=   -1 NThAct=   32.
 IPart= 39 NShTot=        3650 NBatch=         146 AvBLen=        25.0
 PrsmSu-ThDecC:  IPartSL=   39    0 NPrtUSL=   48    1 IThBeg=    0 IThEnd=   47 CPU=   -1 GPU=   -1 NThAct=   31.
 IPart= 29 NShTot=        3775 NBatch=         151 AvBLen=        25.0
 PrsmSu-ThDecC:  IPartSL=   29    0 NPrtUSL=   48    1 IThBeg=    0 IThEnd=   47 CPU=   -1 GPU=   -1 NThAct=   30.
 IPart= 16 NShTot=        4000 NBatch=         160 AvBLen=        25.0
 IPart= 15 NShTot=        4025 NBatch=         161 AvBLen=        25.0
 PrsmSu-ThDecC:  IPartSL=   16    0 NPrtUSL=   48    1 IThBeg=    0 IThEnd=   47 CPU=   -1 GPU=   -1 NThAct=   29.
 PrsmSu-ThDecC:  IPartSL=   15    0 NPrtUSL=   48    1 IThBeg=    0 IThEnd=   47 CPU=   -1 GPU=   -1 NThAct=   28.
 IPart= 12 NShTot=        4175 NBatch=         167 AvBLen=        25.0
 PrsmSu-ThDecC:  IPartSL=   12    0 NPrtUSL=   48    1 IThBeg=    0 IThEnd=   47 CPU=   -1 GPU=   -1 NThAct=   27.
 IPart= 44 NShTot=        3575 NBatch=         143 AvBLen=        25.0
 PrsmSu-ThDecC:  IPartSL=   44    0 NPrtUSL=   48    1 IThBeg=    0 IThEnd=   47 CPU=   -1 GPU=   -1 NThAct=   26.
 IPart= 21 NShTot=        3875 NBatch=         155 AvBLen=        25.0
 PrsmSu-ThDecC:  IPartSL=   21    0 NPrtUSL=   48    1 IThBeg=    0 IThEnd=   47 CPU=   -1 GPU=   -1 NThAct=   25.
 IPart=  4 NShTot=        4700 NBatch=         188 AvBLen=        25.0
 PrsmSu-ThDecC:  IPartSL=    4    0 NPrtUSL=   48    1 IThBeg=    0 IThEnd=   47 CPU=   -1 GPU=   -1 NThAct=   24.
 IPart= 35 NShTot=        3675 NBatch=         147 AvBLen=        25.0
 PrsmSu-ThDecC:  IPartSL=   35    0 NPrtUSL=   48    1 IThBeg=    0 IThEnd=   47 CPU=   -1 GPU=   -1 NThAct=   23.
 IPart= 36 NShTot=        3675 NBatch=         147 AvBLen=        25.0
 PrsmSu-ThDecC:  IPartSL=   36    0 NPrtUSL=   48    1 IThBeg=    0 IThEnd=   47 CPU=   -1 GPU=   -1 NThAct=   22.
 IPart= 13 NShTot=        4075 NBatch=         163 AvBLen=        25.0
 PrsmSu-ThDecC:  IPartSL=   13    0 NPrtUSL=   48    1 IThBeg=    0 IThEnd=   47 CPU=   -1 GPU=   -1 NThAct=   21.
 IPart= 41 NShTot=        3650 NBatch=         146 AvBLen=        25.0
 PrsmSu-ThDecC:  IPartSL=   41    0 NPrtUSL=   48    1 IThBeg=    0 IThEnd=   47 CPU=   -1 GPU=   -1 NThAct=   20.
 IPart= 11 NShTot=        4225 NBatch=         169 AvBLen=        25.0
 PrsmSu-ThDecC:  IPartSL=   11    0 NPrtUSL=   48    1 IThBeg=    0 IThEnd=   47 CPU=   -1 GPU=   -1 NThAct=   19.
 IPart=  7 NShTot=        4475 NBatch=         179 AvBLen=        25.0
 PrsmSu-ThDecC:  IPartSL=    7    0 NPrtUSL=   48    1 IThBeg=    0 IThEnd=   47 CPU=   -1 GPU=   -1 NThAct=   18.
 IPart= 46 NShTot=        3575 NBatch=         143 AvBLen=        25.0
 PrsmSu-ThDecC:  IPartSL=   46    0 NPrtUSL=   48    1 IThBeg=    0 IThEnd=   47 CPU=   -1 GPU=   -1 NThAct=   17.
 IPart= 40 NShTot=        3650 NBatch=         146 AvBLen=        25.0
 PrsmSu-ThDecC:  IPartSL=   40    0 NPrtUSL=   48    1 IThBeg=    0 IThEnd=   47 CPU=   -1 GPU=   -1 NThAct=   16.
 IPart=  1 NShTot=        4875 NBatch=         195 AvBLen=        25.0
 PrsmSu-ThDecC:  IPartSL=    1    0 NPrtUSL=   48    1 IThBeg=    0 IThEnd=   47 CPU=   -1 GPU=   -1 NThAct=   15.
 IPart=  9 NShTot=        4300 NBatch=         172 AvBLen=        25.0
 PrsmSu-ThDecC:  IPartSL=    9    0 NPrtUSL=   48    1 IThBeg=    0 IThEnd=   47 CPU=   -1 GPU=   -1 NThAct=   14.
 IPart=  6 NShTot=        4575 NBatch=         183 AvBLen=        25.0
 PrsmSu-ThDecC:  IPartSL=    6    0 NPrtUSL=   48    1 IThBeg=    0 IThEnd=   47 CPU=   -1 GPU=   -1 NThAct=   13.
 IPart= 26 NShTot=        3825 NBatch=         153 AvBLen=        25.0
 PrsmSu-ThDecC:  IPartSL=   26    0 NPrtUSL=   48    1 IThBeg=    0 IThEnd=   47 CPU=   -1 GPU=   -1 NThAct=   12.
 IPart= 43 NShTot=        3575 NBatch=         143 AvBLen=        25.0
 PrsmSu-ThDecC:  IPartSL=   43    0 NPrtUSL=   48    1 IThBeg=    0 IThEnd=   47 CPU=   -1 GPU=   -1 NThAct=   11.
 IPart= 37 NShTot=        3650 NBatch=         146 AvBLen=        25.0
 PrsmSu-ThDecC:  IPartSL=   37    0 NPrtUSL=   48    1 IThBeg=    0 IThEnd=   47 CPU=   -1 GPU=   -1 NThAct=   10.
 IPart= 38 NShTot=        3650 NBatch=         146 AvBLen=        25.0
 PrsmSu-ThDecC:  IPartSL=   38    0 NPrtUSL=   48    1 IThBeg=    0 IThEnd=   47 CPU=   -1 GPU=   -1 NThAct=    9.
 IPart= 33 NShTot=        3725 NBatch=         149 AvBLen=        25.0
 PrsmSu-ThDecC:  IPartSL=   33    0 NPrtUSL=   48    1 IThBeg=    0 IThEnd=   47 CPU=   -1 GPU=   -1 NThAct=    8.
 IPart= 27 NShTot=        3800 NBatch=         152 AvBLen=        25.0
 PrsmSu-ThDecC:  IPartSL=   27    0 NPrtUSL=   48    1 IThBeg=    0 IThEnd=   47 CPU=   -1 GPU=   -1 NThAct=    7.
 IPart= 47 NShTot=        3575 NBatch=         143 AvBLen=        25.0
 PrsmSu-ThDecC:  IPartSL=   47    0 NPrtUSL=   48    1 IThBeg=    0 IThEnd=   47 CPU=   -1 GPU=   -1 NThAct=    6.
 IPart= 25 NShTot=        3825 NBatch=         153 AvBLen=        25.0
 PrsmSu-ThDecC:  IPartSL=   25    0 NPrtUSL=   48    1 IThBeg=    0 IThEnd=   47 CPU=   -1 GPU=   -1 NThAct=    5.
 IPart= 17 NShTot=        3925 NBatch=         157 AvBLen=        25.0
 IPart= 30 NShTot=        3775 NBatch=         151 AvBLen=        25.0
 PrsmSu-ThDecC:  IPartSL=   17    0 NPrtUSL=   48    1 IThBeg=    0 IThEnd=   47 CPU=   -1 GPU=   -1 NThAct=    4.
 PrsmSu-ThDecC:  IPartSL=   30    0 NPrtUSL=   48    1 IThBeg=    0 IThEnd=   47 CPU=   -1 GPU=   -1 NThAct=    3.
 IPart=  2 NShTot=        4800 NBatch=         192 AvBLen=        25.0
 PrsmSu-ThDecC:  IPartSL=    2    0 NPrtUSL=   48    1 IThBeg=    0 IThEnd=   47 CPU=   -1 GPU=   -1 NThAct=    2.
 IPart= 20 NShTot=        3900 NBatch=         156 AvBLen=        25.0
 PrsmSu-ThDecC:  IPartSL=   20    0 NPrtUSL=   48    1 IThBeg=    0 IThEnd=   47 CPU=   -1 GPU=   -1 NThAct=    1.
 PrSmSu:  NxtVal=           1873.
 --------------------------------------------------------
       Center         ----      EFG at Nuclei      ----
                      3XX-RR        3YY-RR        3ZZ-RR
 --------------------------------------------------------
     1   Atom        0.033565     -0.021747     -0.011818
     2   Atom       -0.028012      0.032140     -0.004128
     3   Atom       -0.105119      0.114810     -0.009690
     4   Atom       -0.010534      0.354496     -0.343962
     5   Atom        0.507281      0.363222     -0.870503
     6   Atom       -1.175223      0.426981      0.748241
     7   Atom        0.146720      0.103841     -0.250561
     8   Atom        0.082586     -0.231224      0.148639
     9   Atom       -0.296112      0.148466      0.147645
    10   Atom        0.122067     -0.277494      0.155427
    11   Atom        0.074188     -0.057655     -0.016533
    12   Atom       -0.017502     -0.177426      0.194928
    13   Atom        0.142758      0.086659     -0.229417
    14   Atom        0.042456      0.103893     -0.146349
    15   Atom       -0.253084     -0.233806      0.486890
    16   Atom        0.234608     -0.208864     -0.025744
    17   Atom        0.122842      0.024759     -0.147601
    18   Atom        0.751599     -0.405640     -0.345959
    19   Atom       -0.112029      0.224153     -0.112124
    20   Atom       -0.149757     -0.024135      0.173892
    21   Atom        0.138145     -0.300675      0.162530
    22   Atom        0.128681     -0.292035      0.163353
    23   Atom       -0.127672     -0.037787      0.165458
    24   Atom        0.027018     -0.201762      0.174743
    25   Atom        0.137170     -0.300717      0.163546
 --------------------------------------------------------
                        XY            XZ            YZ
 --------------------------------------------------------
     1   Atom        0.032990      0.014322     -0.050815
     2   Atom        0.053539     -0.251112     -0.010607
     3   Atom        0.047307     -0.276361      0.039726
     4   Atom       -0.086140     -0.110335      0.030232
     5   Atom        1.112419     -0.380262     -0.302210
     6   Atom        0.427130      0.482899      0.154698
     7   Atom        0.020904     -0.054927      0.128557
     8   Atom       -0.165494      0.021171      0.035842
     9   Atom        0.027308     -0.074374     -0.001000
    10   Atom       -0.130574      0.020457      0.041045
    11   Atom        0.129422      0.127722     -0.196147
    12   Atom        0.232064      0.006147      0.017816
    13   Atom       -0.008973      0.037904     -0.046552
    14   Atom       -0.258261      0.057414     -0.061948
    15   Atom       -0.058240     -0.079181      0.118120
    16   Atom       -0.074723      0.044642      0.016365
    17   Atom        0.132605      0.014828     -0.010859
    18   Atom       -0.124862      0.157507     -0.006736
    19   Atom        0.088996     -0.017060     -0.038825
    20   Atom       -0.230088      0.001761      0.006299
    21   Atom        0.073816     -0.013683      0.073885
    22   Atom        0.063004     -0.013395      0.072184
    23   Atom        0.226791     -0.077101      0.065363
    24   Atom       -0.209001      0.013426      0.033788
    25   Atom        0.054798     -0.013586      0.077148
 --------------------------------------------------------


 ---------------------------------------------------------------------------------
              Nuclear Quadrupole Coupling Constant in Principal Axis System
 ---------------------------------------------------------------------------------

       Atom             a.u.   MegaHertz   Gauss  10(-4) cm-1        Axes

              Baa    -0.3029     1.455     0.519     0.485  0.7422  0.6697 -0.0258
    15 N(14)  Bbb    -0.2128     1.022     0.365     0.341 -0.6606  0.7245 -0.1970
              Bcc     0.5157    -2.477    -0.884    -0.826 -0.1133  0.1633  0.9801
 
              Baa    -0.4208     2.021     0.721     0.674  0.1283  0.9748 -0.1823
    18 N(14)  Bbb    -0.3660     1.758     0.627     0.586 -0.1152  0.1972  0.9736
              Bcc     0.7868    -3.779    -1.348    -1.260  0.9850 -0.1039  0.1376
 

 ---------------------------------------------------------------------------------

 No NMR shielding tensors so no spin-rotation constants.
 Leave Link  601 at Thu Apr 21 11:55:44 2022, MaxMem= 25769803776 cpu:              28.1 elap:               0.7


 IN THE FIGHT BETWEEN YOU AND THE WORLD, BACK THE WORLD

                                        -- FRANZ KAFKA
 Error termination request processed by link 9999.
 Error termination via Lnk1e in /opt/ohpc/pub/libs/gaussian/g16-A.03/haswell/g16/l9999.exe at Thu Apr 21 11:55:44 2022.
 Job cpu time:       1 days  7 hours 44 minutes 54.0 seconds.
 Elapsed time:       0 days  0 hours 41 minutes 14.8 seconds.
 File lengths (MBytes):  RWF=    320 Int=      0 D2E=      0 Chk=     32 Scr=     32
