 Entering Gaussian System, Link 0=g16
 Initial command:
 /opt/ohpc/pub/libs/gaussian/g16-A.03/haswell/g16/l1.exe "g16_scratch/Gau-109336.inp" -scrdir="g16_scratch/"
 Entering Link 1 = /opt/ohpc/pub/libs/gaussian/g16-A.03/haswell/g16/l1.exe PID=    109337.
  
 Copyright (c) 1988,1990,1992,1993,1995,1998,2003,2009,2016,
            Gaussian, Inc.  All Rights Reserved.
  
 This is part of the Gaussian(R) 16 program.  It is based on
 the Gaussian(R) 09 system (copyright 2009, Gaussian, Inc.),
 the Gaussian(R) 03 system (copyright 2003, Gaussian, Inc.),
 the Gaussian(R) 98 system (copyright 1998, Gaussian, Inc.),
 the Gaussian(R) 94 system (copyright 1995, Gaussian, Inc.),
 the Gaussian 92(TM) system (copyright 1992, Gaussian, Inc.),
 the Gaussian 90(TM) system (copyright 1990, Gaussian, Inc.),
 the Gaussian 88(TM) system (copyright 1988, Gaussian, Inc.),
 the Gaussian 86(TM) system (copyright 1986, Carnegie Mellon
 University), and the Gaussian 82(TM) system (copyright 1983,
 Carnegie Mellon University). Gaussian is a federally registered
 trademark of Gaussian, Inc.
  
 This software contains proprietary and confidential information,
 including trade secrets, belonging to Gaussian, Inc.
  
 This software is provided under written license and may be
 used, copied, transmitted, or stored only in accord with that
 written license.
  
 The following legend is applicable only to US Government
 contracts under FAR:
  
                    RESTRICTED RIGHTS LEGEND
  
 Use, reproduction and disclosure by the US Government is
 subject to restrictions as set forth in subparagraphs (a)
 and (c) of the Commercial Computer Software - Restricted
 Rights clause in FAR 52.227-19.
  
 Gaussian, Inc.
 340 Quinnipiac St., Bldg. 40, Wallingford CT 06492
  
  
 ---------------------------------------------------------------
 Warning -- This program may not be used in any manner that
 competes with the business of Gaussian, Inc. or will provide
 assistance to any competitor of Gaussian, Inc.  The licensee
 of this program is prohibited from giving any competitor of
 Gaussian, Inc. access to this program.  By using this program,
 the user acknowledges that Gaussian, Inc. is engaged in the
 business of creating and licensing software in the field of
 computational chemistry and represents and warrants to the
 licensee that it is not a competitor of Gaussian, Inc. and that
 it will not use this program in any manner prohibited above.
 ---------------------------------------------------------------
  

 Cite this work as:
 Gaussian 16, Revision A.03,
 M. J. Frisch, G. W. Trucks, H. B. Schlegel, G. E. Scuseria, 
 M. A. Robb, J. R. Cheeseman, G. Scalmani, V. Barone, 
 G. A. Petersson, H. Nakatsuji, X. Li, M. Caricato, A. V. Marenich, 
 J. Bloino, B. G. Janesko, R. Gomperts, B. Mennucci, H. P. Hratchian, 
 J. V. Ortiz, A. F. Izmaylov, J. L. Sonnenberg, D. Williams-Young, 
 F. Ding, F. Lipparini, F. Egidi, J. Goings, B. Peng, A. Petrone, 
 T. Henderson, D. Ranasinghe, V. G. Zakrzewski, J. Gao, N. Rega, 
 G. Zheng, W. Liang, M. Hada, M. Ehara, K. Toyota, R. Fukuda, 
 J. Hasegawa, M. Ishida, T. Nakajima, Y. Honda, O. Kitao, H. Nakai, 
 T. Vreven, K. Throssell, J. A. Montgomery, Jr., J. E. Peralta, 
 F. Ogliaro, M. J. Bearpark, J. J. Heyd, E. N. Brothers, K. N. Kudin, 
 V. N. Staroverov, T. A. Keith, R. Kobayashi, J. Normand, 
 K. Raghavachari, A. P. Rendell, J. C. Burant, S. S. Iyengar, 
 J. Tomasi, M. Cossi, J. M. Millam, M. Klene, C. Adamo, R. Cammi, 
 J. W. Ochterski, R. L. Martin, K. Morokuma, O. Farkas, 
 J. B. Foresman, and D. J. Fox, Gaussian, Inc., Wallingford CT, 2016.
 
 ******************************************
 Gaussian 16:  ES64L-G16RevA.03 25-Dec-2016
                21-Apr-2022 
 ******************************************
 %Mem=192GB
 %NProcShared=48
 Will use up to   48 processors via shared memory.
 %Chk=MAA1-VI1-5.chk
 ---------------------------------------------------------------------
 #n B3LYP/6-311++G(d,p) Opt freq EmpiricalDispersion=GD3BJ IOp(6/33=2)
 ---------------------------------------------------------------------
 1/18=20,19=15,26=3,38=1/1,3;
 2/9=110,12=2,17=6,18=5,40=1/2;
 3/5=4,6=6,7=1111,11=2,25=1,30=1,71=1,74=-5,124=41/1,2,3;
 4//1;
 5/5=2,38=5/2;
 6/7=2,8=2,9=2,10=2,28=1,33=2/1;
 7//1,2,3,16;
 1/18=20,19=15,26=3/3(2);
 2/9=110/2;
 99//99;
 2/9=110/2;
 3/5=4,6=6,7=1111,11=2,25=1,30=1,71=1,74=-5,124=41/1,2,3;
 4/5=5,16=3,69=1/1;
 5/5=2,38=5/2;
 7//1,2,3,16;
 1/18=20,19=15,26=3/3(-5);
 2/9=110/2;
 6/7=2,8=2,9=2,10=2,19=2,28=1,33=2/1;
 99/9=1/99;
 ----------------
 MAA1-VI1 geo opt
 ----------------
 Symbolic Z-matrix:
 Charge =  0 Multiplicity = 1
 C                     11.473    12.948    11.798 
 C                     12.689    12.273    12.393 
 C                     13.256    11.246    11.737 
 C                     13.222    12.607    13.751 
 O                     14.077    11.911    14.247 
 O                     12.786    13.694    14.39 
 H                     11.753    13.818    11.204 
 H                     10.822    13.372    12.562 
 H                     10.9      12.355    11.085 
 H                     12.833    10.966    10.783 
 H                     14.108    10.731    12.157 
 H                     12.082    14.082    13.893 
 C                     8.731     19.636    12.823 
 C                     9.732     18.889    12.363 
 N                     10.351    17.947    13.147 
 C                     10.933    17.936    14.433 
 C                     11.485    16.706    14.63 
 N                     11.182    15.914    13.526 
 C                     10.544    16.723    12.667 
 H                     8.369     20.473    12.244 
 H                     8.266     19.412    13.771 
 H                     10.1      18.973    11.351 
 H                     10.895    18.81     15.066 
 H                     11.89     16.322    15.555 
 H                     10.094    16.358    11.755 
 
 Add virtual bond connecting atoms N18        and H12        Dist= 3.92D+00.

 GradGradGradGradGradGradGradGradGradGradGradGradGradGradGradGradGradGrad
 Berny optimization.
 Initialization pass.
                           ----------------------------
                           !    Initial Parameters    !
                           ! (Angstroms and Degrees)  !
 --------------------------                            --------------------------
 ! Name  Definition              Value          Derivative Info.                !
 --------------------------------------------------------------------------------
 ! R1    R(1,2)                  1.5127         estimate D2E/DX2                !
 ! R2    R(1,7)                  1.09           estimate D2E/DX2                !
 ! R3    R(1,8)                  1.0896         estimate D2E/DX2                !
 ! R4    R(1,9)                  1.0901         estimate D2E/DX2                !
 ! R5    R(2,3)                  1.3441         estimate D2E/DX2                !
 ! R6    R(2,4)                  1.4966         estimate D2E/DX2                !
 ! R7    R(3,10)                 1.0805         estimate D2E/DX2                !
 ! R8    R(3,11)                 1.0805         estimate D2E/DX2                !
 ! R9    R(4,5)                  1.2089         estimate D2E/DX2                !
 ! R10   R(4,6)                  1.3342         estimate D2E/DX2                !
 ! R11   R(6,12)                 0.9451         estimate D2E/DX2                !
 ! R12   R(12,18)                2.0739         estimate D2E/DX2                !
 ! R13   R(13,14)                1.331          estimate D2E/DX2                !
 ! R14   R(13,20)                1.0802         estimate D2E/DX2                !
 ! R15   R(13,21)                1.0794         estimate D2E/DX2                !
 ! R16   R(14,15)                1.373          estimate D2E/DX2                !
 ! R17   R(14,22)                1.0801         estimate D2E/DX2                !
 ! R18   R(15,16)                1.4116         estimate D2E/DX2                !
 ! R19   R(15,19)                1.3288         estimate D2E/DX2                !
 ! R20   R(16,17)                1.3625         estimate D2E/DX2                !
 ! R21   R(16,23)                1.0798         estimate D2E/DX2                !
 ! R22   R(17,18)                1.3921         estimate D2E/DX2                !
 ! R23   R(17,24)                1.0803         estimate D2E/DX2                !
 ! R24   R(18,19)                1.3414         estimate D2E/DX2                !
 ! R25   R(19,25)                1.0805         estimate D2E/DX2                !
 ! A1    A(2,1,7)              111.3463         estimate D2E/DX2                !
 ! A2    A(2,1,8)              112.2168         estimate D2E/DX2                !
 ! A3    A(2,1,9)              115.9166         estimate D2E/DX2                !
 ! A4    A(7,1,8)              103.002          estimate D2E/DX2                !
 ! A5    A(7,1,9)              102.285          estimate D2E/DX2                !
 ! A6    A(8,1,9)              110.8692         estimate D2E/DX2                !
 ! A7    A(1,2,3)              119.2147         estimate D2E/DX2                !
 ! A8    A(1,2,4)              122.9296         estimate D2E/DX2                !
 ! A9    A(3,2,4)              117.5907         estimate D2E/DX2                !
 ! A10   A(2,3,10)             117.632          estimate D2E/DX2                !
 ! A11   A(2,3,11)             120.471          estimate D2E/DX2                !
 ! A12   A(10,3,11)            121.896          estimate D2E/DX2                !
 ! A13   A(2,4,5)              119.715          estimate D2E/DX2                !
 ! A14   A(2,4,6)              120.0026         estimate D2E/DX2                !
 ! A15   A(5,4,6)              120.2443         estimate D2E/DX2                !
 ! A16   A(4,6,12)             109.0295         estimate D2E/DX2                !
 ! A17   A(6,12,18)            141.1694         estimate D2E/DX2                !
 ! A18   A(14,13,20)           120.1092         estimate D2E/DX2                !
 ! A19   A(14,13,21)           120.7334         estimate D2E/DX2                !
 ! A20   A(20,13,21)           119.1559         estimate D2E/DX2                !
 ! A21   A(13,14,15)           121.7865         estimate D2E/DX2                !
 ! A22   A(13,14,22)           122.4385         estimate D2E/DX2                !
 ! A23   A(15,14,22)           115.7698         estimate D2E/DX2                !
 ! A24   A(14,15,16)           135.3503         estimate D2E/DX2                !
 ! A25   A(14,15,19)           119.4176         estimate D2E/DX2                !
 ! A26   A(16,15,19)           105.1897         estimate D2E/DX2                !
 ! A27   A(15,16,17)           107.8058         estimate D2E/DX2                !
 ! A28   A(15,16,23)           120.8792         estimate D2E/DX2                !
 ! A29   A(17,16,23)           131.3137         estimate D2E/DX2                !
 ! A30   A(16,17,18)           108.1048         estimate D2E/DX2                !
 ! A31   A(16,17,24)           126.6239         estimate D2E/DX2                !
 ! A32   A(18,17,24)           123.9456         estimate D2E/DX2                !
 ! A33   A(12,18,17)           105.5322         estimate D2E/DX2                !
 ! A34   A(12,18,19)           148.4828         estimate D2E/DX2                !
 ! A35   A(17,18,19)           105.5602         estimate D2E/DX2                !
 ! A36   A(15,19,18)           113.1585         estimate D2E/DX2                !
 ! A37   A(15,19,25)           123.7489         estimate D2E/DX2                !
 ! A38   A(18,19,25)           122.3344         estimate D2E/DX2                !
 ! D1    D(7,1,2,3)            -94.0818         estimate D2E/DX2                !
 ! D2    D(7,1,2,4)             91.9788         estimate D2E/DX2                !
 ! D3    D(8,1,2,3)            151.0489         estimate D2E/DX2                !
 ! D4    D(8,1,2,4)            -22.8906         estimate D2E/DX2                !
 ! D5    D(9,1,2,3)             22.2711         estimate D2E/DX2                !
 ! D6    D(9,1,2,4)           -151.6683         estimate D2E/DX2                !
 ! D7    D(1,2,3,10)             2.1141         estimate D2E/DX2                !
 ! D8    D(1,2,3,11)          -178.2514         estimate D2E/DX2                !
 ! D9    D(4,2,3,10)           176.3756         estimate D2E/DX2                !
 ! D10   D(4,2,3,11)            -3.9899         estimate D2E/DX2                !
 ! D11   D(1,2,4,5)            169.755          estimate D2E/DX2                !
 ! D12   D(1,2,4,6)            -12.4827         estimate D2E/DX2                !
 ! D13   D(3,2,4,5)             -4.277          estimate D2E/DX2                !
 ! D14   D(3,2,4,6)            173.4853         estimate D2E/DX2                !
 ! D15   D(2,4,6,12)             6.1966         estimate D2E/DX2                !
 ! D16   D(5,4,6,12)          -176.053          estimate D2E/DX2                !
 ! D17   D(4,6,12,18)         -151.8808         estimate D2E/DX2                !
 ! D18   D(6,12,18,17)         -23.4513         estimate D2E/DX2                !
 ! D19   D(6,12,18,19)         146.8927         estimate D2E/DX2                !
 ! D20   D(20,13,14,15)        170.1595         estimate D2E/DX2                !
 ! D21   D(20,13,14,22)        -10.7102         estimate D2E/DX2                !
 ! D22   D(21,13,14,15)        -10.3053         estimate D2E/DX2                !
 ! D23   D(21,13,14,22)        168.8249         estimate D2E/DX2                !
 ! D24   D(13,14,15,16)        -51.0971         estimate D2E/DX2                !
 ! D25   D(13,14,15,19)        131.6724         estimate D2E/DX2                !
 ! D26   D(22,14,15,16)        129.718          estimate D2E/DX2                !
 ! D27   D(22,14,15,19)        -47.5125         estimate D2E/DX2                !
 ! D28   D(14,15,16,17)       -175.4754         estimate D2E/DX2                !
 ! D29   D(14,15,16,23)          4.1566         estimate D2E/DX2                !
 ! D30   D(19,15,16,17)          2.0251         estimate D2E/DX2                !
 ! D31   D(19,15,16,23)       -178.3429         estimate D2E/DX2                !
 ! D32   D(14,15,19,18)        178.7349         estimate D2E/DX2                !
 ! D33   D(14,15,19,25)        -11.0556         estimate D2E/DX2                !
 ! D34   D(16,15,19,18)          0.7513         estimate D2E/DX2                !
 ! D35   D(16,15,19,25)        170.9608         estimate D2E/DX2                !
 ! D36   D(15,16,17,18)         -3.9387         estimate D2E/DX2                !
 ! D37   D(15,16,17,24)       -171.1095         estimate D2E/DX2                !
 ! D38   D(23,16,17,18)        176.4818         estimate D2E/DX2                !
 ! D39   D(23,16,17,24)          9.311          estimate D2E/DX2                !
 ! D40   D(16,17,18,12)        179.0735         estimate D2E/DX2                !
 ! D41   D(16,17,18,19)          4.2958         estimate D2E/DX2                !
 ! D42   D(24,17,18,12)        -13.3313         estimate D2E/DX2                !
 ! D43   D(24,17,18,19)        171.891          estimate D2E/DX2                !
 ! D44   D(12,18,19,15)       -173.4812         estimate D2E/DX2                !
 ! D45   D(12,18,19,25)         16.1519         estimate D2E/DX2                !
 ! D46   D(17,18,19,15)         -3.1385         estimate D2E/DX2                !
 ! D47   D(17,18,19,25)       -173.5055         estimate D2E/DX2                !
 --------------------------------------------------------------------------------
 Trust Radius=3.00D-01 FncErr=1.00D-07 GrdErr=1.00D-06 EigMax=2.50D+02 EigMin=1.00D-04
 Number of steps in this run=    120 maximum allowed number of steps=    150.
 GradGradGradGradGradGradGradGradGradGradGradGradGradGradGradGradGradGrad

                          Input orientation:                          
 ---------------------------------------------------------------------
 Center     Atomic      Atomic             Coordinates (Angstroms)
 Number     Number       Type             X           Y           Z
 ---------------------------------------------------------------------
      1          6           0       11.473000   12.948000   11.798000
      2          6           0       12.689000   12.273000   12.393000
      3          6           0       13.256000   11.246000   11.737000
      4          6           0       13.222000   12.607000   13.751000
      5          8           0       14.077000   11.911000   14.247000
      6          8           0       12.786000   13.694000   14.390000
      7          1           0       11.753000   13.818000   11.204000
      8          1           0       10.822000   13.372000   12.562000
      9          1           0       10.900000   12.355000   11.085000
     10          1           0       12.833000   10.966000   10.783000
     11          1           0       14.108000   10.731000   12.157000
     12          1           0       12.082000   14.082000   13.893000
     13          6           0        8.731000   19.636000   12.823000
     14          6           0        9.732000   18.889000   12.363000
     15          7           0       10.351000   17.947000   13.147000
     16          6           0       10.933000   17.936000   14.433000
     17          6           0       11.485000   16.706000   14.630000
     18          7           0       11.182000   15.914000   13.526000
     19          6           0       10.544000   16.723000   12.667000
     20          1           0        8.369000   20.473000   12.244000
     21          1           0        8.266000   19.412000   13.771000
     22          1           0       10.100000   18.973000   11.351000
     23          1           0       10.895000   18.810000   15.066000
     24          1           0       11.890000   16.322000   15.555000
     25          1           0       10.094000   16.358000   11.755000
 ---------------------------------------------------------------------
                    Distance matrix (angstroms):
                    1          2          3          4          5
     1  C    0.000000
     2  C    1.512715   0.000000
     3  C    2.465687   1.344081   0.000000
     4  C    2.643765   1.496599   2.430982   0.000000
     5  O    3.722067   2.344121   2.723301   1.208907   0.000000
     6  O    2.999825   2.452888   3.640331   1.334161   2.205951
     7  H    1.090017   2.162601   3.026265   3.179889   4.277555
     8  H    1.089621   2.173028   3.335395   2.785488   3.945728
     9  H    1.090113   2.217681   2.684347   3.544396   4.504299
    10  H    2.609243   2.078722   1.080484   3.413682   3.799981
    11  H    3.462253   2.108796   1.080523   2.616335   2.400304
    12  H    2.458833   2.427124   3.750934   1.869596   2.969610
    13  C    7.300584   8.370450   9.594119   8.392682   9.501743
    14  C    6.216574   7.246807   8.439544   7.319164   8.433325
    15  N    5.297989   6.182963   7.438449   6.092869   7.178187
    16  C    5.667007   6.270144   7.577654   5.839768   6.798526
    17  C    4.705628   5.109332   6.427868   4.537798   5.464172
    18  N    3.444970   4.100197   5.412229   3.892104   4.992482
    19  C    3.983570   4.947585   6.182020   5.028737   6.175260
    20  H    8.152261   9.269552  10.453581   9.364647  10.483373
    21  H    7.480700   8.510413   9.783701   8.418454   9.500489
    22  H    6.195608   7.258008   8.355589   7.485509   8.606694
    23  H    6.736242   7.286682   8.594804   6.754359   7.641471
    24  H    5.066835   5.199139   6.496834   4.339339   5.094188
    25  H    3.678531   4.881423   6.010916   5.276211   6.469170
                    6          7          8          9         10
     6  O    0.000000
     7  H    3.351576   0.000000
     8  H    2.702326   1.705826   0.000000
     9  H    4.033973   1.697686   1.794966   0.000000
    10  H    4.522681   3.078562   3.605246   2.399378   0.000000
    11  H    3.938698   3.997975   4.235174   3.752043   1.889107
    12  H    0.945076   2.721885   1.965518   3.502073   4.466045
    13  C    7.362464   6.752982   6.608941   7.793469   9.805963
    14  C    6.357961   5.580570   5.627165   6.759487   8.653700
    15  N    5.055916   4.773834   4.636237   5.985291   7.777093
    16  C    4.629257   5.296864   4.933868   6.508283   8.094035
    17  C    3.289733   4.488858   3.978913   5.642734   7.040178
    18  N    2.871883   3.179771   2.742382   4.324868   5.893433
    19  C    4.143686   3.470025   3.364151   4.659279   6.475494
    20  H    8.370785   7.538042   7.519477   8.582026  10.604002
    21  H    7.314990   7.074001   6.669064   7.997112  10.055871
    22  H    6.657173   5.415537   5.775726   6.671483   8.479620
    23  H    5.496027   6.369558   5.987252   7.583892   9.144849
    24  H    3.011050   5.021950   4.336032   6.057895   7.235190
    25  H    4.613782   3.083421   3.177645   4.137940   6.125404
                   11         12         13         14         15
    11  H    0.000000
    12  H    4.283407   0.000000
    13  C   10.423757   6.574269   0.000000
    14  C    9.259848   5.565128   1.331018   0.000000
    15  N    8.195475   4.300128   2.362646   1.373019   0.000000
    16  C    8.195903   4.057723   3.214172   2.575948   1.411609
    17  C    6.978287   2.790153   4.408476   3.602470   2.241724
    18  N    6.107301   2.073864   4.511640   3.507947   2.228742
    19  C    6.990441   3.292932   3.434658   2.333092   1.328843
    20  H   11.307089   7.573008   1.080210   2.093081   3.335327
    21  H   10.587432   6.556343   1.079400   2.098845   2.623514
    22  H    9.200232   5.857642   2.116722   1.080104   2.083577
    23  H    9.168200   5.013869   3.224317   2.943640   2.173308
    24  H    6.908343   2.795838   5.331576   4.629829   3.287493
    25  H    6.923650   3.701806   3.707247   2.628054   2.128059
                   16         17         18         19         20
    16  C    0.000000
    17  C    1.362502   0.000000
    18  N    2.230052   1.392081   0.000000
    19  C    2.177486   2.176956   1.341419   0.000000
    20  H    4.219264   5.439921   5.508264   4.355692   0.000000
    21  H    3.119248   4.292118   4.560601   3.693077   1.862273
    22  H    3.356781   4.220113   3.906255   2.644143   2.458416
    23  H    1.079819   2.228231   3.292535   3.199058   4.136415
    24  H    2.186259   1.080327   2.187366   3.211395   6.371104
    25  H    3.219579   3.212726   2.125399   1.080495   4.488649
                   21         22         23         24         25
    21  H    0.000000
    22  H    3.068009   0.000000
    23  H    2.991834   3.802607   0.000000
    24  H    5.085679   5.282567   2.723837   0.000000
    25  H    4.090569   2.646030   4.197216   4.203203   0.000000
 Stoichiometry    C9H12N2O2
 Framework group  C1[X(C9H12N2O2)]
 Deg. of freedom    69
 Full point group                 C1      NOp   1
 Largest Abelian subgroup         C1      NOp   1
 Largest concise Abelian subgroup C1      NOp   1
                         Standard orientation:                         
 ---------------------------------------------------------------------
 Center     Atomic      Atomic             Coordinates (Angstroms)
 Number     Number       Type             X           Y           Z
 ---------------------------------------------------------------------
      1          6           0       -2.016700    1.697422    0.430779
      2          6           0       -3.156313    0.803315   -0.005296
      3          6           0       -4.343972    1.354915   -0.308213
      4          6           0       -3.069056   -0.690681    0.007693
      5          8           0       -4.065655   -1.350739   -0.172783
      6          8           0       -1.887902   -1.288552    0.173253
      7          1           0       -1.383256    1.972623   -0.412517
      8          1           0       -1.325271    1.186634    1.100327
      9          1           0       -2.301186    2.669405    0.834093
     10          1           0       -4.423596    2.431355   -0.259398
     11          1           0       -5.179827    0.733011   -0.594763
     12          1           0       -1.234210   -0.632558    0.361740
     13          6           0        5.208999    0.669281    0.255491
     14          6           0        4.078073    0.825289   -0.428817
     15          7           0        2.976464    0.040117   -0.193992
     16          6           0        2.732543   -1.347478   -0.106104
     17          6           0        1.391071   -1.525466    0.052592
     18          7           0        0.797455   -0.270571    0.156269
     19          6           0        1.787496    0.613108   -0.039522
     20          1           0        6.105159    1.187256   -0.053465
     21          1           0        5.243224    0.033123    1.126833
     22          1           0        3.961753    1.581679   -1.191029
     23          1           0        3.543022   -2.057932   -0.172348
     24          1           0        0.886919   -2.452332    0.284661
     25          1           0        1.645444    1.677015    0.084549
 ---------------------------------------------------------------------
 Rotational constants (GHZ):           2.0674263           0.2796827           0.2497254
 Standard basis: 6-311++G(d,p) (5D, 7F)
 There are   383 symmetry adapted cartesian basis functions of A   symmetry.
 There are   370 symmetry adapted basis functions of A   symmetry.
   370 basis functions,   576 primitive gaussians,   383 cartesian basis functions
    48 alpha electrons       48 beta electrons
       nuclear repulsion energy       724.7693154314 Hartrees.
 NAtoms=   25 NActive=   25 NUniq=   25 SFac= 1.00D+00 NAtFMM=   60 NAOKFM=F Big=F
 Integral buffers will be    131072 words long.
 Raffenetti 2 integral format.
 Two-electron integral symmetry is turned on.
 Nuclear repulsion after empirical dispersion term =      724.7298012629 Hartrees.
 One-electron integrals computed using PRISM.
 NBasis=   370 RedAO= T EigKep=  7.73D-06  NBF=   370
 NBsUse=   370 1.00D-06 EigRej= -1.00D+00 NBFU=   370
 ExpMin= 3.60D-02 ExpMax= 8.59D+03 ExpMxC= 1.30D+03 IAcc=3 IRadAn=         5 AccDes= 0.00D+00
 Harris functional with IExCor=  402 and IRadAn=       5 diagonalized for initial guess.
 HarFok:  IExCor=  402 AccDes= 0.00D+00 IRadAn=         5 IDoV= 1 UseB2=F ITyADJ=14
 ICtDFT=  3500011 ScaDFX=  1.000000  1.000000  1.000000  1.000000
 FoFCou: FMM=F IPFlag=           0 FMFlag=      100000 FMFlg1=           0
         NFxFlg=           0 DoJE=T BraDBF=F KetDBF=T FulRan=T
         wScrn=  0.000000 ICntrl=       500 IOpCl=  0 I1Cent=   200000004 NGrid=           0
         NMat0=    1 NMatS0=      1 NMatT0=    0 NMatD0=    1 NMtDS0=    0 NMtDT0=    0
 Petite list used in FoFCou.
 Requested convergence on RMS density matrix=1.00D-08 within 128 cycles.
 Requested convergence on MAX density matrix=1.00D-06.
 Requested convergence on             energy=1.00D-06.
 No special actions if energy rises.
 SCF Done:  E(RB3LYP) =  -610.293814579     A.U. after   14 cycles
            NFock= 14  Conv=0.61D-08     -V/T= 2.0038
 SCF density gives NOpUse=  1 NOpAll=  1.

 **********************************************************************

            Population analysis using the SCF density.

 **********************************************************************

 Orbital symmetries:
 BldTbl:  Degeneracy threshold= 1.00D-02
       Occupied  (A) (A) (A) (A) (A) (A) (A) (A) (A) (A) (A) (A)
                 (A) (A) (A) (A) (A) (A) (A) (A) (A) (A) (A) (A)
                 (A) (A) (A) (A) (A) (A) (A) (A) (A) (A) (A) (A)
                 (A) (A) (A) (A) (A) (A) (A) (A) (A) (A) (A) (A)
       Virtual   (A) (A) (A) (A) (A) (A) (A) (A) (A) (A) (A) (A)
                 (A) (A) (A) (A) (A) (A) (A) (A) (A) (A) (A) (A)
                 (A) (A) (A) (A) (A) (A) (A) (A) (A) (A) (A) (A)
                 (A) (A) (A) (A) (A) (A) (A) (A) (A) (A) (A) (A)
                 (A) (A) (A) (A) (A) (A) (A) (A) (A) (A) (A) (A)
                 (A) (A) (A) (A) (A) (A) (A) (A) (A) (A) (A) (A)
                 (A) (A) (A) (A) (A) (A) (A) (A) (A) (A) (A) (A)
                 (A) (A) (A) (A) (A) (A) (A) (A) (A) (A) (A) (A)
                 (A) (A) (A) (A) (A) (A) (A) (A) (A) (A) (A) (A)
                 (A) (A) (A) (A) (A) (A) (A) (A) (A) (A) (A) (A)
                 (A) (A) (A) (A) (A) (A) (A) (A) (A) (A) (A) (A)
                 (A) (A) (A) (A) (A) (A) (A) (A) (A) (A) (A) (A)
                 (A) (A) (A) (A) (A) (A) (A) (A) (A) (A) (A) (A)
                 (A) (A) (A) (A) (A) (A) (A) (A) (A) (A) (A) (A)
                 (A) (A) (A) (A) (A) (A) (A) (A) (A) (A) (A) (A)
                 (A) (A) (A) (A) (A) (A) (A) (A) (A) (A) (A) (A)
                 (A) (A) (A) (A) (A) (A) (A) (A) (A) (A) (A) (A)
                 (A) (A) (A) (A) (A) (A) (A) (A) (A) (A) (A) (A)
                 (A) (A) (A) (A) (A) (A) (A) (A) (A) (A) (A) (A)
                 (A) (A) (A) (A) (A) (A) (A) (A) (A) (A) (A) (A)
                 (A) (A) (A) (A) (A) (A) (A) (A) (A) (A) (A) (A)
                 (A) (A) (A) (A) (A) (A) (A) (A) (A) (A) (A) (A)
                 (A) (A) (A) (A) (A) (A) (A) (A) (A) (A) (A) (A)
                 (A) (A) (A) (A) (A) (A) (A) (A) (A) (A) (A) (A)
                 (A) (A) (A) (A) (A) (A) (A) (A) (A) (A) (A) (A)
                 (A) (A) (A) (A) (A) (A) (A) (A) (A) (A) (A) (A)
                 (A) (A) (A) (A) (A) (A) (A) (A) (A) (A)
 The electronic state is 1-A.
 Alpha  occ. eigenvalues --  -19.15043 -19.08483 -14.40660 -14.32436 -10.28877
 Alpha  occ. eigenvalues --  -10.24905 -10.24900 -10.22591 -10.21032 -10.20524
 Alpha  occ. eigenvalues --  -10.19322 -10.17448 -10.17339  -1.09743  -1.05947
 Alpha  occ. eigenvalues --   -1.00758  -0.92433  -0.80936  -0.80148  -0.77521
 Alpha  occ. eigenvalues --   -0.69834  -0.67152  -0.63454  -0.62768  -0.59761
 Alpha  occ. eigenvalues --   -0.59238  -0.56655  -0.50603  -0.49869  -0.47891
 Alpha  occ. eigenvalues --   -0.46641  -0.45838  -0.44478  -0.44355  -0.43889
 Alpha  occ. eigenvalues --   -0.42938  -0.42472  -0.41438  -0.40614  -0.38206
 Alpha  occ. eigenvalues --   -0.36106  -0.34289  -0.31139  -0.30689  -0.28242
 Alpha  occ. eigenvalues --   -0.26650  -0.26176  -0.25906
 Alpha virt. eigenvalues --   -0.05726  -0.04732  -0.02197  -0.01174  -0.00597
 Alpha virt. eigenvalues --    0.00391   0.01084   0.01517   0.02052   0.02603
 Alpha virt. eigenvalues --    0.03050   0.03447   0.03667   0.04217   0.05201
 Alpha virt. eigenvalues --    0.05569   0.06195   0.06756   0.07251   0.08076
 Alpha virt. eigenvalues --    0.08512   0.08850   0.09011   0.09407   0.09572
 Alpha virt. eigenvalues --    0.10080   0.10620   0.10796   0.11296   0.11607
 Alpha virt. eigenvalues --    0.12189   0.12417   0.12761   0.13070   0.13523
 Alpha virt. eigenvalues --    0.13808   0.14047   0.14171   0.14353   0.14974
 Alpha virt. eigenvalues --    0.15079   0.15587   0.16158   0.16411   0.16940
 Alpha virt. eigenvalues --    0.17446   0.17626   0.17996   0.18733   0.18800
 Alpha virt. eigenvalues --    0.19327   0.20485   0.20664   0.20947   0.21808
 Alpha virt. eigenvalues --    0.22642   0.23261   0.23586   0.23974   0.24380
 Alpha virt. eigenvalues --    0.24951   0.25216   0.25671   0.26224   0.26661
 Alpha virt. eigenvalues --    0.27446   0.27941   0.28402   0.29236   0.29950
 Alpha virt. eigenvalues --    0.30250   0.31097   0.31888   0.32371   0.32647
 Alpha virt. eigenvalues --    0.33266   0.33718   0.33945   0.34472   0.35273
 Alpha virt. eigenvalues --    0.35614   0.36325   0.37655   0.38155   0.39122
 Alpha virt. eigenvalues --    0.40094   0.41031   0.42318   0.43099   0.43775
 Alpha virt. eigenvalues --    0.45167   0.47014   0.48188   0.49391   0.50184
 Alpha virt. eigenvalues --    0.50419   0.52066   0.53617   0.53943   0.55261
 Alpha virt. eigenvalues --    0.57210   0.57861   0.58808   0.58983   0.60168
 Alpha virt. eigenvalues --    0.60679   0.61846   0.62330   0.63397   0.64167
 Alpha virt. eigenvalues --    0.65639   0.66059   0.67074   0.67503   0.68080
 Alpha virt. eigenvalues --    0.69054   0.70344   0.70440   0.71542   0.71999
 Alpha virt. eigenvalues --    0.72496   0.73407   0.74737   0.75391   0.76301
 Alpha virt. eigenvalues --    0.76853   0.78257   0.78993   0.80512   0.81825
 Alpha virt. eigenvalues --    0.82726   0.86263   0.87015   0.87626   0.88468
 Alpha virt. eigenvalues --    0.89368   0.90471   0.92177   0.92340   0.95049
 Alpha virt. eigenvalues --    0.96647   0.97960   1.00169   1.00317   1.02946
 Alpha virt. eigenvalues --    1.04355   1.06221   1.06769   1.07387   1.08214
 Alpha virt. eigenvalues --    1.10244   1.11984   1.12779   1.13769   1.18044
 Alpha virt. eigenvalues --    1.18445   1.19966   1.20189   1.21757   1.24463
 Alpha virt. eigenvalues --    1.25086   1.25171   1.26541   1.30811   1.31339
 Alpha virt. eigenvalues --    1.35094   1.38753   1.41520   1.42034   1.43866
 Alpha virt. eigenvalues --    1.44349   1.46455   1.47748   1.48925   1.49789
 Alpha virt. eigenvalues --    1.50509   1.50843   1.52483   1.56072   1.57482
 Alpha virt. eigenvalues --    1.58836   1.61049   1.61398   1.62351   1.64353
 Alpha virt. eigenvalues --    1.65392   1.66668   1.68208   1.69665   1.70878
 Alpha virt. eigenvalues --    1.71648   1.72947   1.73520   1.75572   1.76267
 Alpha virt. eigenvalues --    1.77926   1.78648   1.79406   1.81303   1.81816
 Alpha virt. eigenvalues --    1.83924   1.86875   1.87253   1.89378   1.89608
 Alpha virt. eigenvalues --    1.91259   1.95362   1.97810   2.01062   2.02176
 Alpha virt. eigenvalues --    2.04224   2.05910   2.07197   2.08363   2.11337
 Alpha virt. eigenvalues --    2.12099   2.14353   2.15166   2.17316   2.18883
 Alpha virt. eigenvalues --    2.21686   2.25439   2.27534   2.28707   2.30563
 Alpha virt. eigenvalues --    2.31923   2.36487   2.40099   2.41242   2.43051
 Alpha virt. eigenvalues --    2.44122   2.49466   2.50193   2.55492   2.56154
 Alpha virt. eigenvalues --    2.56235   2.56955   2.58417   2.58686   2.61566
 Alpha virt. eigenvalues --    2.62576   2.63639   2.64270   2.66478   2.67511
 Alpha virt. eigenvalues --    2.69948   2.71307   2.71913   2.73134   2.74171
 Alpha virt. eigenvalues --    2.75005   2.76737   2.77736   2.78435   2.80663
 Alpha virt. eigenvalues --    2.81307   2.83261   2.85873   2.87972   2.88949
 Alpha virt. eigenvalues --    2.89466   2.90814   2.95739   2.96387   2.97533
 Alpha virt. eigenvalues --    2.99284   3.00787   3.07284   3.12621   3.16718
 Alpha virt. eigenvalues --    3.18797   3.19252   3.22719   3.26494   3.27302
 Alpha virt. eigenvalues --    3.38630   3.39336   3.45406   3.46260   3.56021
 Alpha virt. eigenvalues --    3.56345   3.60059   3.62614   3.64442   3.71496
 Alpha virt. eigenvalues --    3.72740   3.77046   3.79393   3.80783   3.82577
 Alpha virt. eigenvalues --    3.86564   3.91218   3.93794   3.95435   4.05192
 Alpha virt. eigenvalues --    4.08671   4.12238   4.30705   4.33383   4.53703
 Alpha virt. eigenvalues --    4.73163   5.00192   5.05979   5.07555   5.20103
 Alpha virt. eigenvalues --    5.21957   5.46983   5.66716   5.92864  23.72166
 Alpha virt. eigenvalues --   23.73355  23.77210  23.86627  23.91889  23.97399
 Alpha virt. eigenvalues --   24.15661  24.20994  24.22673  35.50459  35.64562
 Alpha virt. eigenvalues --   49.91848  50.06098
          Condensed to atoms (all electrons):
               1          2          3          4          5          6
     1  C    7.472148  -0.644402  -0.886559  -0.077275  -0.042871   0.178111
     2  C   -0.644402   6.277489  -0.080036  -0.049670  -0.128123  -0.308220
     3  C   -0.886559  -0.080036   6.911415  -0.280209   0.001654  -0.028616
     4  C   -0.077275  -0.049670  -0.280209   6.181653   0.420235   0.207891
     5  O   -0.042871  -0.128123   0.001654   0.420235   8.123279  -0.113261
     6  O    0.178111  -0.308220  -0.028616   0.207891  -0.113261   8.055867
     7  H    0.312129  -0.017572   0.055468  -0.032416   0.001354  -0.007772
     8  H    0.180559   0.056794   0.026384   0.052902  -0.002422  -0.015729
     9  H    0.509902  -0.107189  -0.005256  -0.012106   0.000291   0.002374
    10  H   -0.018724  -0.029053   0.341916   0.026392   0.002864   0.000627
    11  H    0.051566  -0.031204   0.338439  -0.002009   0.001446   0.004429
    12  H   -0.189641   0.074233   0.021316  -0.079804   0.035313   0.180079
    13  C    0.005302  -0.002837  -0.000260   0.000113  -0.000004   0.000064
    14  C   -0.008390   0.004256   0.000601  -0.000001   0.000023  -0.000873
    15  N   -0.005246   0.007090   0.001634  -0.003294   0.000089  -0.000342
    16  C   -0.024275  -0.014761  -0.001875   0.001049  -0.001780   0.023508
    17  C    0.052401   0.015462   0.004857  -0.015506  -0.001112   0.033333
    18  N    0.051471  -0.028311  -0.000067  -0.015342   0.002624  -0.003009
    19  C   -0.051129   0.019976   0.008941   0.015471   0.000088  -0.017501
    20  H   -0.000173   0.000063   0.000012  -0.000017   0.000000  -0.000006
    21  H    0.000145  -0.000080  -0.000021   0.000077   0.000000  -0.000011
    22  H   -0.001535   0.000719   0.000140  -0.000269   0.000004  -0.000092
    23  H   -0.001359   0.000770   0.000068  -0.000821   0.000014  -0.000190
    24  H    0.006654  -0.001320   0.000903   0.002260  -0.000431  -0.000953
    25  H    0.005011  -0.001298  -0.001449   0.003415  -0.000229   0.001210
               7          8          9         10         11         12
     1  C    0.312129   0.180559   0.509902  -0.018724   0.051566  -0.189641
     2  C   -0.017572   0.056794  -0.107189  -0.029053  -0.031204   0.074233
     3  C    0.055468   0.026384  -0.005256   0.341916   0.338439   0.021316
     4  C   -0.032416   0.052902  -0.012106   0.026392  -0.002009  -0.079804
     5  O    0.001354  -0.002422   0.000291   0.002864   0.001446   0.035313
     6  O   -0.007772  -0.015729   0.002374   0.000627   0.004429   0.180079
     7  H    0.614142  -0.049457  -0.065082   0.001432  -0.001926   0.021258
     8  H   -0.049457   0.626074  -0.027157   0.004551  -0.003817   0.010320
     9  H   -0.065082  -0.027157   0.558239  -0.006799   0.003655  -0.008788
    10  H    0.001432   0.004551  -0.006799   0.566518  -0.021819   0.000489
    11  H   -0.001926  -0.003817   0.003655  -0.021819   0.474266   0.000112
    12  H    0.021258   0.010320  -0.008788   0.000489   0.000112   0.627355
    13  C    0.000127  -0.001232   0.000677  -0.000026   0.000006   0.000213
    14  C   -0.000701   0.003807  -0.000543  -0.000026   0.000008  -0.005467
    15  N   -0.000212   0.000294   0.000178  -0.000088   0.000007  -0.015510
    16  C    0.005805   0.015531  -0.004269   0.000698   0.000017   0.026848
    17  C   -0.010867  -0.011862   0.006326  -0.000800   0.000197  -0.102929
    18  N   -0.011457  -0.022064   0.011149  -0.000762   0.000507   0.021957
    19  C    0.015802   0.009991  -0.005813   0.000428  -0.000460   0.012322
    20  H    0.000046   0.000022  -0.000023   0.000000   0.000000   0.000080
    21  H   -0.000121   0.000117   0.000030  -0.000000  -0.000000  -0.000321
    22  H   -0.000007   0.000513  -0.000127   0.000003   0.000000   0.000165
    23  H    0.000443   0.000006  -0.000120   0.000002   0.000000   0.003443
    24  H   -0.001249  -0.002079   0.000548  -0.000050   0.000011  -0.017398
    25  H   -0.001109  -0.000341  -0.002318   0.000552  -0.000090  -0.002234
              13         14         15         16         17         18
     1  C    0.005302  -0.008390  -0.005246  -0.024275   0.052401   0.051471
     2  C   -0.002837   0.004256   0.007090  -0.014761   0.015462  -0.028311
     3  C   -0.000260   0.000601   0.001634  -0.001875   0.004857  -0.000067
     4  C    0.000113  -0.000001  -0.003294   0.001049  -0.015506  -0.015342
     5  O   -0.000004   0.000023   0.000089  -0.001780  -0.001112   0.002624
     6  O    0.000064  -0.000873  -0.000342   0.023508   0.033333  -0.003009
     7  H    0.000127  -0.000701  -0.000212   0.005805  -0.010867  -0.011457
     8  H   -0.001232   0.003807   0.000294   0.015531  -0.011862  -0.022064
     9  H    0.000677  -0.000543   0.000178  -0.004269   0.006326   0.011149
    10  H   -0.000026  -0.000026  -0.000088   0.000698  -0.000800  -0.000762
    11  H    0.000006   0.000008   0.000007   0.000017   0.000197   0.000507
    12  H    0.000213  -0.005467  -0.015510   0.026848  -0.102929   0.021957
    13  C    5.642261   0.074808  -0.118064  -0.023939   0.083043   0.025929
    14  C    0.074808   5.632150   0.217014  -0.206729   0.050530  -0.054031
    15  N   -0.118064   0.217014   6.672068   0.083864   0.115396  -0.119129
    16  C   -0.023939  -0.206729   0.083864   7.223413  -1.463490   0.229363
    17  C    0.083043   0.050530   0.115396  -1.463490   7.107663   0.022746
    18  N    0.025929  -0.054031  -0.119129   0.229363   0.022746   6.755480
    19  C    0.000714  -0.131782   0.181818   0.024703  -0.211730   0.429949
    20  H    0.374942  -0.026259   0.020521   0.008101  -0.005859   0.000727
    21  H    0.402076  -0.012324  -0.021619  -0.020219   0.015947  -0.001508
    22  H   -0.112133   0.486255  -0.076614  -0.000392  -0.010279  -0.001623
    23  H    0.010069  -0.040766  -0.089275   0.502338  -0.111030   0.029923
    24  H   -0.003158   0.014842   0.037323  -0.222588   0.580295  -0.072886
    25  H   -0.026606   0.009364  -0.091066   0.048765  -0.028465  -0.033816
              19         20         21         22         23         24
     1  C   -0.051129  -0.000173   0.000145  -0.001535  -0.001359   0.006654
     2  C    0.019976   0.000063  -0.000080   0.000719   0.000770  -0.001320
     3  C    0.008941   0.000012  -0.000021   0.000140   0.000068   0.000903
     4  C    0.015471  -0.000017   0.000077  -0.000269  -0.000821   0.002260
     5  O    0.000088   0.000000   0.000000   0.000004   0.000014  -0.000431
     6  O   -0.017501  -0.000006  -0.000011  -0.000092  -0.000190  -0.000953
     7  H    0.015802   0.000046  -0.000121  -0.000007   0.000443  -0.001249
     8  H    0.009991   0.000022   0.000117   0.000513   0.000006  -0.002079
     9  H   -0.005813  -0.000023   0.000030  -0.000127  -0.000120   0.000548
    10  H    0.000428   0.000000  -0.000000   0.000003   0.000002  -0.000050
    11  H   -0.000460   0.000000  -0.000000   0.000000   0.000000   0.000011
    12  H    0.012322   0.000080  -0.000321   0.000165   0.003443  -0.017398
    13  C    0.000714   0.374942   0.402076  -0.112133   0.010069  -0.003158
    14  C   -0.131782  -0.026259  -0.012324   0.486255  -0.040766   0.014842
    15  N    0.181818   0.020521  -0.021619  -0.076614  -0.089275   0.037323
    16  C    0.024703   0.008101  -0.020219  -0.000392   0.502338  -0.222588
    17  C   -0.211730  -0.005859   0.015947  -0.010279  -0.111030   0.580295
    18  N    0.429949   0.000727  -0.001508  -0.001623   0.029923  -0.072886
    19  C    5.567452  -0.000425  -0.007992   0.012976   0.031696   0.003985
    20  H   -0.000425   0.518701  -0.027383  -0.003220   0.001292  -0.000129
    21  H   -0.007992  -0.027383   0.518808   0.003668  -0.006859   0.000842
    22  H    0.012976  -0.003220   0.003668   0.510919  -0.001318   0.000350
    23  H    0.031696   0.001292  -0.006859  -0.001318   0.518865  -0.014232
    24  H    0.003985  -0.000129   0.000842   0.000350  -0.014232   0.516742
    25  H    0.432893   0.000824  -0.000418  -0.000907   0.001137   0.000143
              25
     1  C    0.005011
     2  C   -0.001298
     3  C   -0.001449
     4  C    0.003415
     5  O   -0.000229
     6  O    0.001210
     7  H   -0.001109
     8  H   -0.000341
     9  H   -0.002318
    10  H    0.000552
    11  H   -0.000090
    12  H   -0.002234
    13  C   -0.026606
    14  C    0.009364
    15  N   -0.091066
    16  C    0.048765
    17  C   -0.028465
    18  N   -0.033816
    19  C    0.432893
    20  H    0.000824
    21  H   -0.000418
    22  H   -0.000907
    23  H    0.001137
    24  H    0.000143
    25  H    0.522511
 Mulliken charges:
               1
     1  C   -0.873820
     2  C    0.987222
     3  C   -0.429399
     4  C   -0.342719
     5  O   -0.299045
     6  O   -0.190920
     7  H    0.171942
     8  H    0.148297
     9  H    0.152222
    10  H    0.131675
    11  H    0.186657
    12  H    0.386588
    13  C   -0.332086
    14  C   -0.005768
    15  N    0.203165
    16  C   -0.209685
    17  C   -0.114266
    18  N   -0.217817
    19  C   -0.342373
    20  H    0.138163
    21  H    0.157166
    22  H    0.192802
    23  H    0.165905
    24  H    0.171574
    25  H    0.164521
 Sum of Mulliken charges =  -0.00000
 Mulliken charges with hydrogens summed into heavy atoms:
               1
     1  C   -0.401359
     2  C    0.987222
     3  C   -0.111067
     4  C   -0.342719
     5  O   -0.299045
     6  O    0.195668
    13  C   -0.036757
    14  C    0.187034
    15  N    0.203165
    16  C   -0.043780
    17  C    0.057307
    18  N   -0.217817
    19  C   -0.177852
 DipInt: DoE/N= T F RetVal/Mat= T F Init=T NMatP=  1 IDeriv=0 Min/MaxMlt=  0  4
 Entering OneElI...
 OneElI was handed 25769427713 working-precision words.
 Multipole integrals L=0 to 4 MinM= 0 MaxM= 0.
 Requested accuracy = 0.1000D-12
 ShPair: Thresh= 1.00D-13 NBox=     0 BxSize= 0.00D+00 RnKept= 2.14D+01
         NSMCal=                 9591 NSMKep=                8142
 PrmmSu-InSpLW:  IPartL=    0 NPrtUS=    1 NPrtUL=    1 DoSpLW=F IThBeg=    0 IThEnd=    0 NThAct=    1.
 PrsmSu:  NPrtUS=   1 ThrOK=F IAlg=1 NPAlg=1 LenDen=           0 ISkipM=0 DoSpLW=F IThBeg=    0 IThEnd=    0.
 Prism:   IPart=     0 DynPar=F LinDyn=F Incr=          81.
 PRISM was handed 25768884644 working-precision words and  8142 shell-pairs
 IPart=  0 NShTot=        8142 NBatch=          97 AvBLen=        83.9
 PrsmSu-ThDecC:  IPartSL=    0    0 NPrtUSL=    1    1 IThBeg=    0 IThEnd=    0 CPU=   -1 GPU=   -1 NThAct=    1.
 PrSmSu:  NxtVal=             82.
 Electronic moments (au):
        -96.00000000          3.03258971          1.69264887          0.08740849
      -3529.86673279       -533.31591321        -93.72607746         -8.93940832
         -0.91050240         -1.66325601      -2229.05479065        -55.20735666
         -7.51086921        794.70270172      -1586.15455398        445.62387097
        -59.56834950        -63.73591799        -31.99923573         69.63173520
    -221331.20642366      -6327.31683921       -433.41536699      -9147.02816867
      -4613.49911559       2323.95549028       -160.93845219         36.86567895
        -13.85339374     -18103.46681917      -3848.59487689       -626.82742724
        488.04379162        188.85835644         63.15744741
 Electronic spatial extent (au):  <R**2>=           4156.9087
 DipInt: DoE/N= F T RetVal/Mat= T F Init=T NMatP=  1 IDeriv=0 Min/MaxMlt=  0  4
 Nuclear    moments (au):
         96.00000000         -0.00000000         -0.00000000         -0.00000000
       3473.54159240        476.99732632         34.36528765          0.00000000
         -0.00000000         -0.00000000       2431.15215458         59.20340898
          8.91881189       -765.19124987       1671.98043456       -445.02296452
         55.93329580         61.18975015         31.58191957        -77.50479727
     209079.58240275       4505.15646180         80.03624452       8812.14916494
       4705.01666207      -2445.44210611        142.94069986        -35.16198198
          4.44111314      15620.29819037       1618.99520716        233.95526385
       -600.81316688       -234.12069044         -4.08064476
 Total      moments (au):
          0.00000000          3.03258971          1.69264887          0.08740849
        -56.32514039        -56.31858689        -59.36078981         -8.93940832
         -0.91050240         -1.66325601        202.09736393          3.99605232
          1.40794268         29.51145185         85.82588058          0.60090645
         -3.63505371         -2.54616784         -0.41731616         -7.87306207
     -12251.62402091      -1822.16037741       -353.37912247       -334.87900373
         91.51754648       -121.48661583        -17.99775233          1.70369697
         -9.41228060      -2483.16862880      -2229.59966974       -392.87216339
       -112.76937526        -45.26233399         59.07680265
 Traceless Quadrup. (au):
          1.00969864          1.01625214         -2.02595078         -8.93940832
         -0.91050240         -1.66325601
 Charge=              0.0000 electrons
 Dipole moment (field-independent basis, Debye):
    X=              7.7081    Y=              4.3023    Z=              0.2222  Tot=              8.8303
 Quadrupole moment (field-independent basis, Debye-Ang):
   XX=            -75.7592   YY=            -75.7504   ZZ=            -79.8423
   XY=            -12.0238   XZ=             -1.2247   YZ=             -2.2371
 Traceless Quadrupole moment (field-independent basis, Debye-Ang):
   XX=              1.3581   YY=              1.3669   ZZ=             -2.7250
   XY=            -12.0238   XZ=             -1.2247   YZ=             -2.2371
 Octapole moment (field-independent basis, Debye-Ang**2):
  XXX=            143.8451  YYY=              2.8442  ZZZ=              1.0021  XYY=             21.0051
  XXY=             61.0876  XXZ=              0.4277  XZZ=             -2.5873  YZZ=             -1.8123
  YYZ=             -0.2970  XYZ=             -5.6037
 Hexadecapole moment (field-independent basis, Debye-Ang**3):
 XXXX=          -4614.5491 YYYY=           -686.3130 ZZZZ=           -133.0995 XXXY=           -126.1315
 XXXZ=             34.4699 YYYX=            -45.7577 YYYZ=             -6.7788 ZZZX=              0.6417
 ZZZY=             -3.5451 XXYY=           -935.2804 XXZZ=           -839.7741 YYZZ=           -147.9745
 XXYZ=            -42.4744 YYXZ=            -17.0480 ZZXY=             22.2512
 N-N= 7.247298012629D+02 E-N=-2.872985355212D+03  KE= 6.080018613691D+02
 Entering OneElI...
 OneElI was handed 25769510018 working-precision words.
 Calculate electrostatic properties
    NBasis =   370  MinDer = 0  MaxDer = 0
    NGrid  =    25  NMatD  =   1
 Requested accuracy = 0.1000D-12
 ShPair: Thresh= 1.00D-13 NBox=     0 BxSize= 0.00D+00 RnKept= 2.14D+01
         NSMCal=                 9591 NSMKep=                7562
 PrmmSu-InSpLW:  IPartL=    0 NPrtUS=   48 NPrtUL=    1 DoSpLW=F IThBeg=    0 IThEnd=   47 NThAct=   48.
 PrsmSu:  NPrtUS=  48 ThrOK=T IAlg=1 NPAlg=1 LenDen=           0 ISkipM=0 DoSpLW=F IThBeg=    0 IThEnd=   47.
 Prism:   IPart=     0 DynPar=F LinDyn=F Incr=          39.
 PRISM was handed   536705061 working-precision words and  7562 shell-pairs
 PRISM was handed   536705061 working-precision words and  7562 shell-pairs
 PRISM was handed   536705061 working-precision words and  7562 shell-pairs
 PRISM was handed   536705061 working-precision words and  7562 shell-pairs
 PRISM was handed   536705061 working-precision words and  7562 shell-pairs
 PRISM was handed   536705061 working-precision words and  7562 shell-pairs
 PRISM was handed   536705061 working-precision words and  7562 shell-pairs
 PRISM was handed   536705061 working-precision words and  7562 shell-pairs
 PRISM was handed   536705061 working-precision words and  7562 shell-pairs
 PRISM was handed   536705061 working-precision words and  7562 shell-pairs
 PRISM was handed   536705061 working-precision words and  7562 shell-pairs
 PRISM was handed   536705061 working-precision words and  7562 shell-pairs
 PRISM was handed   536705061 working-precision words and  7562 shell-pairs
 PRISM was handed   536705061 working-precision words and  7562 shell-pairs
 PRISM was handed   536705061 working-precision words and  7562 shell-pairs
 PRISM was handed   536705061 working-precision words and  7562 shell-pairs
 PRISM was handed   536705061 working-precision words and  7562 shell-pairs
 PRISM was handed   536705061 working-precision words and  7562 shell-pairs
 PRISM was handed   536705061 working-precision words and  7562 shell-pairs
 PRISM was handed   536705061 working-precision words and  7562 shell-pairs
 PRISM was handed   536705061 working-precision words and  7562 shell-pairs
 PRISM was handed   536705061 working-precision words and  7562 shell-pairs
 PRISM was handed   536705061 working-precision words and  7562 shell-pairs
 PRISM was handed   536705061 working-precision words and  7562 shell-pairs
 PRISM was handed   536705061 working-precision words and  7562 shell-pairs
 PRISM was handed   536705061 working-precision words and  7562 shell-pairs
 PRISM was handed   536705061 working-precision words and  7562 shell-pairs
 PRISM was handed   536705061 working-precision words and  7562 shell-pairs
 PRISM was handed   536705061 working-precision words and  7562 shell-pairs
 PRISM was handed   536705061 working-precision words and  7562 shell-pairs
 PRISM was handed   536705061 working-precision words and  7562 shell-pairs
 PRISM was handed   536705061 working-precision words and  7562 shell-pairs
 PRISM was handed   536705061 working-precision words and  7562 shell-pairs
 PRISM was handed   536705061 working-precision words and  7562 shell-pairs
 PRISM was handed   536705061 working-precision words and  7562 shell-pairs
 PRISM was handed   536705061 working-precision words and  7562 shell-pairs
 PRISM was handed   536705061 working-precision words and  7562 shell-pairs
 PRISM was handed   536705061 working-precision words and  7562 shell-pairs
 PRISM was handed   536705061 working-precision words and  7562 shell-pairs
 PRISM was handed   536705061 working-precision words and  7562 shell-pairs
 PRISM was handed   536705061 working-precision words and  7562 shell-pairs
 PRISM was handed   536705061 working-precision words and  7562 shell-pairs
 PRISM was handed   536705061 working-precision words and  7562 shell-pairs
 PRISM was handed   536705061 working-precision words and  7562 shell-pairs
 PRISM was handed   536705061 working-precision words and  7562 shell-pairs
 PRISM was handed   536705061 working-precision words and  7562 shell-pairs
 PRISM was handed   536705061 working-precision words and  7562 shell-pairs
 PRISM was handed   536705061 working-precision words and  7562 shell-pairs
 IPart= 43 NShTot=        3575 NBatch=         143 AvBLen=        25.0
 PrsmSu-ThDecC:  IPartSL=   43    0 NPrtUSL=   48    1 IThBeg=    0 IThEnd=   47 CPU=   -1 GPU=   -1 NThAct=   48.
 IPart= 33 NShTot=        3700 NBatch=         148 AvBLen=        25.0
 PrsmSu-ThDecC:  IPartSL=   33    0 NPrtUSL=   48    1 IThBeg=    0 IThEnd=   47 CPU=   -1 GPU=   -1 NThAct=   47.
 IPart= 32 NShTot=        3725 NBatch=         149 AvBLen=        25.0
 PrsmSu-ThDecC:  IPartSL=   32    0 NPrtUSL=   48    1 IThBeg=    0 IThEnd=   47 CPU=   -1 GPU=   -1 NThAct=   46.
 IPart= 15 NShTot=        3925 NBatch=         157 AvBLen=        25.0
 PrsmSu-ThDecC:  IPartSL=   15    0 NPrtUSL=   48    1 IThBeg=    0 IThEnd=   47 CPU=   -1 GPU=   -1 NThAct=   45.
 IPart= 29 NShTot=        3750 NBatch=         150 AvBLen=        25.0
 PrsmSu-ThDecC:  IPartSL=   29    0 NPrtUSL=   48    1 IThBeg=    0 IThEnd=   47 CPU=   -1 GPU=   -1 NThAct=   44.
 IPart= 25 NShTot=        3775 NBatch=         151 AvBLen=        25.0
 PrsmSu-ThDecC:  IPartSL=   25    0 NPrtUSL=   48    1 IThBeg=    0 IThEnd=   47 CPU=   -1 GPU=   -1 NThAct=   43.
 IPart= 41 NShTot=        3625 NBatch=         145 AvBLen=        25.0
 PrsmSu-ThDecC:  IPartSL=   41    0 NPrtUSL=   48    1 IThBeg=    0 IThEnd=   47 CPU=   -1 GPU=   -1 NThAct=   42.
 IPart= 40 NShTot=        3625 NBatch=         145 AvBLen=        25.0
 PrsmSu-ThDecC:  IPartSL=   40    0 NPrtUSL=   48    1 IThBeg=    0 IThEnd=   47 CPU=   -1 GPU=   -1 NThAct=   41.
 IPart= 44 NShTot=        3550 NBatch=         142 AvBLen=        25.0
 PrsmSu-ThDecC:  IPartSL=   44    0 NPrtUSL=   48    1 IThBeg=    0 IThEnd=   47 CPU=   -1 GPU=   -1 NThAct=   40.
 IPart= 35 NShTot=        3675 NBatch=         147 AvBLen=        25.0
 IPart= 23 NShTot=        3800 NBatch=         152 AvBLen=        25.0
 PrsmSu-ThDecC:  IPartSL=   35    0 NPrtUSL=   48    1 IThBeg=    0 IThEnd=   47 CPU=   -1 GPU=   -1 NThAct=   39.
 PrsmSu-ThDecC:  IPartSL=   23    0 NPrtUSL=   48    1 IThBeg=    0 IThEnd=   47 CPU=   -1 GPU=   -1 NThAct=   38.
 IPart= 46 NShTot=        3550 NBatch=         142 AvBLen=        25.0
 PrsmSu-ThDecC:  IPartSL=   46    0 NPrtUSL=   48    1 IThBeg=    0 IThEnd=   47 CPU=   -1 GPU=   -1 NThAct=   37.
 IPart= 38 NShTot=        3650 NBatch=         146 AvBLen=        25.0
 PrsmSu-ThDecC:  IPartSL=   38    0 NPrtUSL=   48    1 IThBeg=    0 IThEnd=   47 CPU=   -1 GPU=   -1 NThAct=   36.
 IPart= 17 NShTot=        3875 NBatch=         155 AvBLen=        25.0
 PrsmSu-ThDecC:  IPartSL=   17    0 NPrtUSL=   48    1 IThBeg=    0 IThEnd=   47 CPU=   -1 GPU=   -1 NThAct=   35.
 IPart= 16 NShTot=        3900 NBatch=         156 AvBLen=        25.0
 IPart=  8 NShTot=        4300 NBatch=         172 AvBLen=        25.0
 PrsmSu-ThDecC:  IPartSL=   16    0 NPrtUSL=   48    1 IThBeg=    0 IThEnd=   47 CPU=   -1 GPU=   -1 NThAct=   34.
 IPart=  0 NShTot=        4925 NBatch=         197 AvBLen=        25.0
 PrsmSu-ThDecC:  IPartSL=    8    0 NPrtUSL=   48    1 IThBeg=    0 IThEnd=   47 CPU=   -1 GPU=   -1 NThAct=   33.
 PrsmSu-ThDecC:  IPartSL=    0    0 NPrtUSL=   48    1 IThBeg=    0 IThEnd=   47 CPU=   -1 GPU=   -1 NThAct=   32.
 IPart= 28 NShTot=        3750 NBatch=         150 AvBLen=        25.0
 PrsmSu-ThDecC:  IPartSL=   28    0 NPrtUSL=   48    1 IThBeg=    0 IThEnd=   47 CPU=   -1 GPU=   -1 NThAct=   31.
 IPart= 20 NShTot=        3850 NBatch=         154 AvBLen=        25.0
 PrsmSu-ThDecC:  IPartSL=   20    0 NPrtUSL=   48    1 IThBeg=    0 IThEnd=   47 CPU=   -1 GPU=   -1 NThAct=   30.
 IPart=  9 NShTot=        4300 NBatch=         172 AvBLen=        25.0
 PrsmSu-ThDecC:  IPartSL=    9    0 NPrtUSL=   48    1 IThBeg=    0 IThEnd=   47 CPU=   -1 GPU=   -1 NThAct=   29.
 IPart= 13 NShTot=        3950 NBatch=         158 AvBLen=        25.0
 PrsmSu-ThDecC:  IPartSL=   13    0 NPrtUSL=   48    1 IThBeg=    0 IThEnd=   47 CPU=   -1 GPU=   -1 NThAct=   28.
 IPart= 45 NShTot=        3550 NBatch=         142 AvBLen=        25.0
 PrsmSu-ThDecC:  IPartSL=   45    0 NPrtUSL=   48    1 IThBeg=    0 IThEnd=   47 CPU=   -1 GPU=   -1 NThAct=   27.
 IPart= 10 NShTot=        4225 NBatch=         169 AvBLen=        25.0
 PrsmSu-ThDecC:  IPartSL=   10    0 NPrtUSL=   48    1 IThBeg=    0 IThEnd=   47 CPU=   -1 GPU=   -1 NThAct=   26.
 IPart= 39 NShTot=        3625 NBatch=         145 AvBLen=        25.0
 PrsmSu-ThDecC:  IPartSL=   39    0 NPrtUSL=   48    1 IThBeg=    0 IThEnd=   47 CPU=   -1 GPU=   -1 NThAct=   25.
 IPart= 26 NShTot=        3775 NBatch=         151 AvBLen=        25.0
 PrsmSu-ThDecC:  IPartSL=   26    0 NPrtUSL=   48    1 IThBeg=    0 IThEnd=   47 CPU=   -1 GPU=   -1 NThAct=   24.
 IPart= 34 NShTot=        3675 NBatch=         147 AvBLen=        25.0
 PrsmSu-ThDecC:  IPartSL=   34    0 NPrtUSL=   48    1 IThBeg=    0 IThEnd=   47 CPU=   -1 GPU=   -1 NThAct=   23.
 IPart= 21 NShTot=        3825 NBatch=         153 AvBLen=        25.0
 PrsmSu-ThDecC:  IPartSL=   21    0 NPrtUSL=   48    1 IThBeg=    0 IThEnd=   47 CPU=   -1 GPU=   -1 NThAct=   22.
 IPart= 14 NShTot=        3950 NBatch=         158 AvBLen=        25.0
 PrsmSu-ThDecC:  IPartSL=   14    0 NPrtUSL=   48    1 IThBeg=    0 IThEnd=   47 CPU=   -1 GPU=   -1 NThAct=   21.
 IPart=  4 NShTot=        4600 NBatch=         184 AvBLen=        25.0
 PrsmSu-ThDecC:  IPartSL=    4    0 NPrtUSL=   48    1 IThBeg=    0 IThEnd=   47 CPU=   -1 GPU=   -1 NThAct=   20.
 IPart=  5 NShTot=        4550 NBatch=         182 AvBLen=        25.0
 PrsmSu-ThDecC:  IPartSL=    5    0 NPrtUSL=   48    1 IThBeg=    0 IThEnd=   47 CPU=   -1 GPU=   -1 NThAct=   19.
 IPart=  1 NShTot=        4825 NBatch=         193 AvBLen=        25.0
 PrsmSu-ThDecC:  IPartSL=    1    0 NPrtUSL=   48    1 IThBeg=    0 IThEnd=   47 CPU=   -1 GPU=   -1 NThAct=   18.
 IPart= 18 NShTot=        3875 NBatch=         155 AvBLen=        25.0
 PrsmSu-ThDecC:  IPartSL=   18    0 NPrtUSL=   48    1 IThBeg=    0 IThEnd=   47 CPU=   -1 GPU=   -1 NThAct=   17.
 IPart= 37 NShTot=        3650 NBatch=         146 AvBLen=        25.0
 PrsmSu-ThDecC:  IPartSL=   37    0 NPrtUSL=   48    1 IThBeg=    0 IThEnd=   47 CPU=   -1 GPU=   -1 NThAct=   16.
 IPart= 22 NShTot=        3800 NBatch=         152 AvBLen=        25.0
 PrsmSu-ThDecC:  IPartSL=   22    0 NPrtUSL=   48    1 IThBeg=    0 IThEnd=   47 CPU=   -1 GPU=   -1 NThAct=   15.
 IPart=  3 NShTot=        4650 NBatch=         186 AvBLen=        25.0
 PrsmSu-ThDecC:  IPartSL=    3    0 NPrtUSL=   48    1 IThBeg=    0 IThEnd=   47 CPU=   -1 GPU=   -1 NThAct=   14.
 IPart= 31 NShTot=        3725 NBatch=         149 AvBLen=        25.0
 PrsmSu-ThDecC:  IPartSL=   31    0 NPrtUSL=   48    1 IThBeg=    0 IThEnd=   47 CPU=   -1 GPU=   -1 NThAct=   13.
 IPart= 42 NShTot=        3600 NBatch=         144 AvBLen=        25.0
 PrsmSu-ThDecC:  IPartSL=   42    0 NPrtUSL=   48    1 IThBeg=    0 IThEnd=   47 CPU=   -1 GPU=   -1 NThAct=   12.
 IPart= 27 NShTot=        3750 NBatch=         150 AvBLen=        25.0
 PrsmSu-ThDecC:  IPartSL=   27    0 NPrtUSL=   48    1 IThBeg=    0 IThEnd=   47 CPU=   -1 GPU=   -1 NThAct=   11.
 IPart= 36 NShTot=        3675 NBatch=         147 AvBLen=        25.0
 PrsmSu-ThDecC:  IPartSL=   36    0 NPrtUSL=   48    1 IThBeg=    0 IThEnd=   47 CPU=   -1 GPU=   -1 NThAct=   10.
 IPart= 24 NShTot=        3800 NBatch=         152 AvBLen=        25.0
 PrsmSu-ThDecC:  IPartSL=   24    0 NPrtUSL=   48    1 IThBeg=    0 IThEnd=   47 CPU=   -1 GPU=   -1 NThAct=    9.
 IPart= 12 NShTot=        4150 NBatch=         166 AvBLen=        25.0
 PrsmSu-ThDecC:  IPartSL=   12    0 NPrtUSL=   48    1 IThBeg=    0 IThEnd=   47 CPU=   -1 GPU=   -1 NThAct=    8.
 IPart= 30 NShTot=        3750 NBatch=         150 AvBLen=        25.0
 PrsmSu-ThDecC:  IPartSL=   30    0 NPrtUSL=   48    1 IThBeg=    0 IThEnd=   47 CPU=   -1 GPU=   -1 NThAct=    7.
 IPart=  6 NShTot=        4525 NBatch=         181 AvBLen=        25.0
 PrsmSu-ThDecC:  IPartSL=    6    0 NPrtUSL=   48    1 IThBeg=    0 IThEnd=   47 CPU=   -1 GPU=   -1 NThAct=    6.
 IPart= 19 NShTot=        3875 NBatch=         155 AvBLen=        25.0
 PrsmSu-ThDecC:  IPartSL=   19    0 NPrtUSL=   48    1 IThBeg=    0 IThEnd=   47 CPU=   -1 GPU=   -1 NThAct=    5.
 IPart=  2 NShTot=        4775 NBatch=         191 AvBLen=        25.0
 PrsmSu-ThDecC:  IPartSL=    2    0 NPrtUSL=   48    1 IThBeg=    0 IThEnd=   47 CPU=   -1 GPU=   -1 NThAct=    4.
 IPart= 47 NShTot=        3550 NBatch=         142 AvBLen=        25.0
 PrsmSu-ThDecC:  IPartSL=   47    0 NPrtUSL=   48    1 IThBeg=    0 IThEnd=   47 CPU=   -1 GPU=   -1 NThAct=    3.
 IPart=  7 NShTot=        4350 NBatch=         174 AvBLen=        25.0
 PrsmSu-ThDecC:  IPartSL=    7    0 NPrtUSL=   48    1 IThBeg=    0 IThEnd=   47 CPU=   -1 GPU=   -1 NThAct=    2.
 IPart= 11 NShTot=        4175 NBatch=         167 AvBLen=        25.0
 PrsmSu-ThDecC:  IPartSL=   11    0 NPrtUSL=   48    1 IThBeg=    0 IThEnd=   47 CPU=   -1 GPU=   -1 NThAct=    1.
 PrSmSu:  NxtVal=           1873.
 --------------------------------------------------------
       Center         ----      EFG at Nuclei      ----
                      3XX-RR        3YY-RR        3ZZ-RR
 --------------------------------------------------------
     1   Atom       -0.002419     -0.026621      0.029040
     2   Atom        0.182281      0.029066     -0.211347
     3   Atom        0.184379      0.144529     -0.328908
     4   Atom        0.078545      0.276427     -0.354972
     5   Atom       -0.059081      0.963809     -0.904728
     6   Atom       -1.246809      0.321658      0.925151
     7   Atom        0.000268      0.127058     -0.127326
     8   Atom       -0.020570      0.038788     -0.018218
     9   Atom        0.113177     -0.207038      0.093861
    10   Atom        0.153733     -0.322332      0.168599
    11   Atom       -0.138173      0.009920      0.128254
    12   Atom       -0.115144     -0.125903      0.241047
    13   Atom        0.159418     -0.117308     -0.042109
    14   Atom        0.031813     -0.075986      0.044173
    15   Atom       -0.187163     -0.319641      0.506804
    16   Atom        0.256325     -0.271836      0.015511
    17   Atom        0.125330      0.038898     -0.164228
    18   Atom        0.773652     -0.415472     -0.358180
    19   Atom       -0.064578      0.173651     -0.109072
    20   Atom       -0.174624      0.050800      0.123824
    21   Atom        0.155339     -0.005729     -0.149610
    22   Atom        0.138938     -0.067583     -0.071356
    23   Atom       -0.120747     -0.058069      0.178815
    24   Atom        0.047148     -0.199312      0.152164
    25   Atom        0.137188     -0.308933      0.171746
 --------------------------------------------------------
                        XY            XZ            YZ
 --------------------------------------------------------
     1   Atom       -0.062316     -0.026839     -0.021169
     2   Atom       -0.077213      0.116693     -0.006764
     3   Atom       -0.014679      0.182182      0.028017
     4   Atom        0.153819      0.079492      0.033510
     5   Atom       -1.061510      0.117621     -0.137506
     6   Atom       -0.026028     -0.453601     -0.165692
     7   Atom       -0.070420      0.208999      0.087169
     8   Atom        0.128918     -0.185467      0.131064
     9   Atom        0.112764      0.044877     -0.157223
    10   Atom        0.037909     -0.002581     -0.022593
    11   Atom       -0.208012     -0.102227     -0.072989
    12   Atom       -0.334414     -0.112650     -0.106446
    13   Atom        0.069400      0.094582     -0.204461
    14   Atom       -0.123963      0.207881     -0.131980
    15   Atom       -0.068921      0.123551      0.042530
    16   Atom       -0.109950     -0.060400      0.028439
    17   Atom        0.117283     -0.053406     -0.028024
    18   Atom       -0.236530     -0.184018      0.022937
    19   Atom        0.054271     -0.010437     -0.016406
    20   Atom       -0.196404      0.108256      0.073781
    21   Atom        0.005525     -0.017465      0.237281
    22   Atom        0.029869     -0.040317      0.244071
    23   Atom        0.232402      0.026158     -0.018386
    24   Atom       -0.188654      0.051128      0.085646
    25   Atom        0.057197      0.011681     -0.049988
 --------------------------------------------------------


 ---------------------------------------------------------------------------------
              Nuclear Quadrupole Coupling Constant in Principal Axis System
 ---------------------------------------------------------------------------------

       Atom             a.u.   MegaHertz   Gauss  10(-4) cm-1        Axes

              Baa    -0.3584     1.721     0.614     0.574  0.4364  0.8935 -0.1062
    15 N(14)  Bbb    -0.1709     0.821     0.293     0.274  0.8842 -0.4477 -0.1331
              Bcc     0.5292    -2.542    -0.907    -0.848  0.1665  0.0359  0.9854
 
              Baa    -0.4627     2.222     0.793     0.741  0.2077  0.9660  0.1537
    18 N(14)  Bbb    -0.3847     1.848     0.659     0.616  0.1182 -0.1808  0.9764
              Bcc     0.8474    -4.070    -1.452    -1.358  0.9710 -0.1846 -0.1517
 

 ---------------------------------------------------------------------------------

 No NMR shielding tensors so no spin-rotation constants.
 Leave Link  601 at Thu Apr 21 14:50:24 2022, MaxMem= 25769803776 cpu:              25.2 elap:               0.6
 Calling FoFJK, ICntrl=      2127 FMM=F ISym2X=0 I1Cent= 0 IOpClX= 0 NMat=1 NMatS=1 NMatT=0.
 ***** Axes restored to original set *****
 -------------------------------------------------------------------
 Center     Atomic                   Forces (Hartrees/Bohr)
 Number     Number              X              Y              Z
 -------------------------------------------------------------------
      1        6           0.002797654    0.018021622    0.000247142
      2        6          -0.013895327   -0.015132529   -0.014771767
      3        6          -0.003935490    0.012329676    0.007377111
      4        6           0.020127400   -0.012603140    0.000423292
      5        8           0.001470682    0.001793014    0.005874675
      6        8           0.009838274   -0.012003836    0.009784028
      7        1           0.006529154    0.005932720    0.000034078
      8        1          -0.005814372   -0.005131485    0.000454114
      9        1           0.000607010   -0.009340165    0.007010982
     10        1           0.003612730   -0.004758486   -0.002509449
     11        1           0.000292006   -0.001896232   -0.002014041
     12        1          -0.022003686    0.025652646   -0.012911575
     13        6           0.002568076    0.001694147   -0.005315664
     14        6          -0.020375869    0.035957390    0.000462843
     15        7           0.019722453   -0.022566561    0.025134883
     16        6          -0.004369244    0.025955494    0.001144117
     17        6          -0.024593445   -0.001836412   -0.012211444
     18        7          -0.000277709    0.009600824   -0.008196443
     19        6           0.016431082   -0.059815377    0.008863522
     20        1          -0.005303380   -0.002159160   -0.002089875
     21        1           0.002279384    0.004584210    0.005188913
     22        1           0.004217800    0.002612267   -0.001236718
     23        1           0.000982955    0.000163355   -0.003024194
     24        1           0.005609777   -0.001338485   -0.005213727
     25        1           0.003482085    0.004284503   -0.002504800
 -------------------------------------------------------------------
 Cartesian Forces:  Max     0.059815377 RMS     0.013067098

 GradGradGradGradGradGradGradGradGradGradGradGradGradGradGradGradGradGrad
 Berny optimization.
 FormGI is forming the generalized inverse of G from B-inverse, IUseBI=4.
 Internal  Forces:  Max     0.038769397 RMS     0.008920628
 Search for a local minimum.
 Step number   1 out of a maximum of  120
 All quantities printed in internal units (Hartrees-Bohrs-Radians)
 Mixed Optimization -- RFO/linear search
 Second derivative matrix not updated -- first step.
 ITU=  0
     Eigenvalues ---    0.00230   0.00598   0.00811   0.01271   0.01405
     Eigenvalues ---    0.01755   0.01844   0.01921   0.02049   0.02058
     Eigenvalues ---    0.02125   0.02325   0.02422   0.02556   0.02563
     Eigenvalues ---    0.02594   0.02828   0.02829   0.03001   0.03001
     Eigenvalues ---    0.03821   0.06181   0.07158   0.15369   0.15696
     Eigenvalues ---    0.15802   0.15999   0.15999   0.16000   0.16000
     Eigenvalues ---    0.16000   0.16000   0.16000   0.16000   0.16000
     Eigenvalues ---    0.16000   0.21959   0.22000   0.23142   0.24899
     Eigenvalues ---    0.24913   0.24964   0.24992   0.25000   0.25000
     Eigenvalues ---    0.31079   0.32737   0.34800   0.34811   0.34857
     Eigenvalues ---    0.35931   0.35935   0.35936   0.35955   0.35969
     Eigenvalues ---    0.35982   0.36016   0.36067   0.40478   0.44552
     Eigenvalues ---    0.48170   0.50401   0.55016   0.56300   0.57650
     Eigenvalues ---    0.58534   0.58811   0.59266   1.00472
 RFO step:  Lambda=-2.82660931D-02 EMin= 2.30000000D-03
 Linear search not attempted -- first point.
 Iteration  1 RMS(Cart)=  0.13152546 RMS(Int)=  0.00306614
 Iteration  2 RMS(Cart)=  0.00685967 RMS(Int)=  0.00070876
 Iteration  3 RMS(Cart)=  0.00002308 RMS(Int)=  0.00070863
 Iteration  4 RMS(Cart)=  0.00000001 RMS(Int)=  0.00070863
 Variable       Old X    -DE/DX   Delta X   Delta X   Delta X     New X
                                 (Linear)    (Quad)   (Total)
    R1        2.85862  -0.00213   0.00000  -0.00627  -0.00627   2.85234
    R2        2.05983   0.00639   0.00000   0.01699   0.01699   2.07682
    R3        2.05908   0.00180   0.00000   0.00476   0.00476   2.06385
    R4        2.06002   0.00018   0.00000   0.00047   0.00047   2.06048
    R5        2.53995  -0.00574   0.00000  -0.00971  -0.00971   2.53023
    R6        2.82816   0.00727   0.00000   0.02045   0.02045   2.84861
    R7        2.04182   0.00203   0.00000   0.00525   0.00525   2.04707
    R8        2.04189   0.00035   0.00000   0.00091   0.00091   2.04280
    R9        2.28450   0.00242   0.00000   0.00234   0.00234   2.28684
   R10        2.52120   0.01162   0.00000   0.01894   0.01894   2.54014
   R11        1.78594   0.03173   0.00000   0.05148   0.05148   1.83742
   R12        3.91904  -0.00287   0.00000  -0.04317  -0.04317   3.87587
   R13        2.51526   0.00189   0.00000   0.00304   0.00304   2.51830
   R14        2.04130   0.00122   0.00000   0.00316   0.00316   2.04446
   R15        2.03977   0.00262   0.00000   0.00675   0.00675   2.04652
   R16        2.59463   0.03849   0.00000   0.07230   0.07230   2.66693
   R17        2.04110   0.00280   0.00000   0.00721   0.00721   2.04831
   R18        2.66756  -0.01694   0.00000  -0.03303  -0.03322   2.63433
   R19        2.51115   0.03877   0.00000   0.06503   0.06469   2.57584
   R20        2.57476   0.00314   0.00000   0.00381   0.00405   2.57880
   R21        2.04056  -0.00168   0.00000  -0.00431  -0.00431   2.03625
   R22        2.63065  -0.00385   0.00000  -0.01214  -0.01179   2.61886
   R23        2.04152  -0.00189   0.00000  -0.00486  -0.00486   2.03666
   R24        2.53492  -0.02627   0.00000  -0.04439  -0.04444   2.49047
   R25        2.04184  -0.00078   0.00000  -0.00202  -0.00202   2.03982
    A1        1.94336  -0.00313   0.00000  -0.00107  -0.00111   1.94225
    A2        1.95855   0.00446   0.00000   0.01677   0.01557   1.97413
    A3        2.02313  -0.01225   0.00000  -0.07373  -0.07463   1.94849
    A4        1.79772   0.00349   0.00000   0.03578   0.03545   1.83318
    A5        1.78521   0.01067   0.00000   0.06871   0.06898   1.85419
    A6        1.93503  -0.00102   0.00000  -0.02887  -0.03065   1.90438
    A7        2.08069   0.00934   0.00000   0.03503   0.03468   2.11537
    A8        2.14553  -0.00800   0.00000  -0.02769  -0.02810   2.11742
    A9        2.05235  -0.00115   0.00000  -0.00273  -0.00311   2.04923
   A10        2.05306   0.00648   0.00000   0.03443   0.03443   2.08749
   A11        2.10262  -0.00043   0.00000  -0.00227  -0.00227   2.10034
   A12        2.12749  -0.00606   0.00000  -0.03218  -0.03218   2.09530
   A13        2.08942   0.01272   0.00000   0.04606   0.04585   2.13527
   A14        2.09444  -0.01205   0.00000  -0.04293  -0.04314   2.05130
   A15        2.09866  -0.00062   0.00000  -0.00184  -0.00205   2.09661
   A16        1.90292   0.01643   0.00000   0.08728   0.08728   1.99020
   A17        2.46387   0.00362   0.00000   0.01300   0.01300   2.47687
   A18        2.09630   0.00123   0.00000   0.00656   0.00653   2.10283
   A19        2.10719   0.00094   0.00000   0.00503   0.00500   2.11220
   A20        2.07966  -0.00217   0.00000  -0.01150  -0.01152   2.06814
   A21        2.12558   0.00663   0.00000   0.02671   0.02671   2.15228
   A22        2.13695  -0.00252   0.00000  -0.00910  -0.00910   2.12785
   A23        2.02056  -0.00411   0.00000  -0.01756  -0.01756   2.00300
   A24        2.36231  -0.02620   0.00000  -0.10050  -0.10032   2.26199
   A25        2.08423   0.02231   0.00000   0.07412   0.07415   2.15838
   A26        1.83591   0.00385   0.00000   0.02565   0.02527   1.86118
   A27        1.88157  -0.01249   0.00000  -0.04830  -0.04809   1.83348
   A28        2.10974   0.00448   0.00000   0.01474   0.01463   2.12437
   A29        2.29186   0.00802   0.00000   0.03355   0.03344   2.32530
   A30        1.88679   0.01572   0.00000   0.05637   0.05481   1.94159
   A31        2.21000  -0.00325   0.00000   0.00623   0.00392   2.21393
   A32        2.16326  -0.01112   0.00000  -0.03780  -0.04066   2.12260
   A33        1.84188   0.00231   0.00000   0.01482   0.01438   1.85626
   A34        2.59151  -0.00001   0.00000   0.00328   0.00335   2.59487
   A35        1.84237  -0.00230   0.00000  -0.01825  -0.01792   1.82445
   A36        1.97499  -0.00450   0.00000  -0.01052  -0.01123   1.96376
   A37        2.15983  -0.00036   0.00000  -0.00558  -0.00617   2.15366
   A38        2.13514   0.00539   0.00000   0.02511   0.02480   2.15994
    D1       -1.64204   0.00091   0.00000   0.00938   0.00965  -1.63239
    D2        1.60533  -0.00120   0.00000  -0.04322  -0.04302   1.56231
    D3        2.63630  -0.00422   0.00000  -0.04490  -0.04432   2.59198
    D4       -0.39952  -0.00633   0.00000  -0.09750  -0.09699  -0.49650
    D5        0.38870   0.00420   0.00000   0.04812   0.04737   0.43608
    D6       -2.64711   0.00210   0.00000  -0.00448  -0.00529  -2.65241
    D7        0.03690  -0.00045   0.00000  -0.01852  -0.01898   0.01792
    D8       -3.11107  -0.00067   0.00000  -0.02236  -0.02282  -3.13389
    D9        3.07833   0.00108   0.00000   0.02961   0.03007   3.10840
   D10       -0.06964   0.00086   0.00000   0.02577   0.02623  -0.04341
   D11        2.96278   0.00055   0.00000   0.00722   0.00655   2.96933
   D12       -0.21786   0.00208   0.00000   0.04542   0.04510  -0.17277
   D13       -0.07465  -0.00213   0.00000  -0.04677  -0.04644  -0.12109
   D14        3.02789  -0.00060   0.00000  -0.00857  -0.00790   3.01999
   D15        0.10815  -0.00263   0.00000  -0.05138  -0.05103   0.05712
   D16       -3.07271  -0.00078   0.00000  -0.01190  -0.01226  -3.08496
   D17       -2.65082  -0.00085   0.00000  -0.01861  -0.01861  -2.66943
   D18       -0.40930   0.00078   0.00000   0.02357   0.02375  -0.38555
   D19        2.56376   0.00057   0.00000   0.02057   0.02039   2.58415
   D20        2.96984   0.00495   0.00000   0.08478   0.08477   3.05462
   D21       -0.18693   0.00516   0.00000   0.08873   0.08873  -0.09820
   D22       -0.17986   0.00571   0.00000   0.09784   0.09784  -0.08202
   D23        2.94655   0.00593   0.00000   0.10179   0.10180   3.04835
   D24       -0.89181   0.00164   0.00000   0.03446   0.03462  -0.85719
   D25        2.29812   0.00281   0.00000   0.05634   0.05617   2.35429
   D26        2.26401   0.00143   0.00000   0.03072   0.03088   2.29489
   D27       -0.82925   0.00261   0.00000   0.05260   0.05244  -0.77681
   D28       -3.06262  -0.00184   0.00000  -0.02482  -0.02516  -3.08778
   D29        0.07255  -0.00148   0.00000  -0.02570  -0.02669   0.04586
   D30        0.03534  -0.00239   0.00000  -0.04304  -0.04223  -0.00689
   D31       -3.11267  -0.00203   0.00000  -0.04392  -0.04376   3.12676
   D32        3.11951  -0.00171   0.00000  -0.01360  -0.01389   3.10562
   D33       -0.19296   0.00221   0.00000   0.04655   0.04499  -0.14797
   D34        0.01311   0.00012   0.00000   0.00615   0.00710   0.02022
   D35        2.98383   0.00403   0.00000   0.06631   0.06598   3.04981
   D36       -0.06874   0.00313   0.00000   0.06104   0.06109  -0.00765
   D37       -2.98642  -0.00221   0.00000  -0.05297  -0.05530  -3.04173
   D38        3.08019   0.00275   0.00000   0.06219   0.06303  -3.13996
   D39        0.16251  -0.00259   0.00000  -0.05181  -0.05336   0.10915
   D40        3.12542  -0.00255   0.00000  -0.05561  -0.05640   3.06902
   D41        0.07498  -0.00249   0.00000  -0.05495  -0.05556   0.01942
   D42       -0.23267   0.00371   0.00000   0.06112   0.05909  -0.17358
   D43        3.00006   0.00377   0.00000   0.06178   0.05994   3.06000
   D44       -3.02782   0.00209   0.00000   0.03338   0.03243  -2.99539
   D45        0.28190  -0.00114   0.00000  -0.02246  -0.02323   0.25867
   D46       -0.05478   0.00210   0.00000   0.03195   0.03061  -0.02416
   D47       -3.02824  -0.00113   0.00000  -0.02389  -0.02505  -3.05329
         Item               Value     Threshold  Converged?
 Maximum Force            0.038769     0.000450     NO 
 RMS     Force            0.008921     0.000300     NO 
 Maximum Displacement     0.446545     0.001800     NO 
 RMS     Displacement     0.130617     0.001200     NO 
[...]
 **** Fit       0.015158
 **** Fit       0.015158
 **** Fit       0.016721
 **** Fit       0.018467
 **** Fit       0.020319
 **** Fit       0.022111
 **** Fit       0.023575
 **** Fit       0.024408
 **** Fit       0.024397
 **** Fit       0.023545
 **** Fit       0.022068
 **** Fit       0.020271
 **** Fit       0.018418
 **** Fit       0.016675
 **** Fit       0.015116
 **** Fit       0.015074
 **** Fit       0.016652
 **** Fit       0.018441
 **** Fit       0.020369
 **** Fit       0.022258
 **** Fit       0.023815
 **** Fit       0.024705
 **** Fit       0.024694
 **** Fit       0.023785
 **** Fit       0.022215
 **** Fit       0.020322
 **** Fit       0.018394
 **** Fit       0.016607
 **** Fit       0.015035
 **** Fit       0.015020
 **** Fit       0.016633
 **** Fit       0.018505
 **** Fit       0.020569
 **** Fit       0.022634
 **** Fit       0.024368
 **** Fit       0.025370
 **** Fit       0.025359
 **** Fit       0.024337
 **** Fit       0.022592
 **** Fit       0.020522
 **** Fit       0.018459
 **** Fit       0.016591
 **** Fit       0.014983
 **** Fit       0.015056
 **** Fit       0.016752
 **** Fit       0.018783
 **** Fit       0.021106
 **** Fit       0.023524
 **** Fit       0.025633
 **** Fit       0.026888
 **** Fit       0.026876
 **** Fit       0.025600
 **** Fit       0.023480
 **** Fit       0.021059
 **** Fit       0.018738
 **** Fit       0.016712
 **** Fit       0.015021
 **** Fit       0.013750
 **** Fit       0.015216
 **** Fit       0.017051
 **** Fit       0.019336
 **** Fit       0.022077
 **** Fit       0.025096
 **** Fit       0.027886
 **** Fit       0.029627
 **** Fit       0.029612
 **** Fit       0.027848
 **** Fit       0.025046
 **** Fit       0.022027
 **** Fit       0.019291
 **** Fit       0.017013
 **** Fit       0.015183
 **** Fit       0.013722
 **** Fit       0.013925
 **** Fit       0.015490
 **** Fit       0.017504
 **** Fit       0.020104
 **** Fit       0.023376
 **** Fit       0.027191
 **** Fit       0.030930
 **** Fit       0.030882
 **** Fit       0.027133
 **** Fit       0.023321
 **** Fit       0.020058
 **** Fit       0.017466
 **** Fit       0.015459
 **** Fit       0.013899
 **** Fit       0.014153
 **** Fit       0.015820
 **** Fit       0.018003
 **** Fit       0.020887
 **** Fit       0.024624
 **** Fit       0.029135
 **** Fit       0.033706
 **** Fit       0.033649
 **** Fit       0.029069
 **** Fit       0.024565
 **** Fit       0.020840
 **** Fit       0.017966
 **** Fit       0.015791
 **** Fit       0.014130
 **** Fit       0.014382
 **** Fit       0.016118
 **** Fit       0.018396
 **** Fit       0.021408
 **** Fit       0.025314
 **** Fit       0.030022
 **** Fit       0.034776
 **** Fit       0.034719
 **** Fit       0.029956
 **** Fit       0.025256
 **** Fit       0.021362
 **** Fit       0.018360
 **** Fit       0.016091
 **** Fit       0.014361
 **** Fit       0.014554
 **** Fit       0.016297
 **** Fit       0.018551
 **** Fit       0.021471
 **** Fit       0.025153
 **** Fit       0.029443
 **** Fit       0.033624
 **** Fit       0.036335
 **** Fit       0.036315
 **** Fit       0.033576
 **** Fit       0.029386
 **** Fit       0.025102
 **** Fit       0.021429
 **** Fit       0.018519
 **** Fit       0.016272
 **** Fit       0.014534
 **** Fit       0.014623
 **** Fit       0.016306
 **** Fit       0.018420
 **** Fit       0.021058
 **** Fit       0.024234
 **** Fit       0.027740
 **** Fit       0.030980
 **** Fit       0.032997
 **** Fit       0.032984
 **** Fit       0.030945
 **** Fit       0.027696
 **** Fit       0.024192
 **** Fit       0.021023
 **** Fit       0.018392
 **** Fit       0.016284
 **** Fit       0.014606
 **** Fit       0.016136
 **** Fit       0.018032
 **** Fit       0.020291
 **** Fit       0.022867
 **** Fit       0.025546
 **** Fit       0.027886
 **** Fit       0.029283
 **** Fit       0.029274
 **** Fit       0.027862
 **** Fit       0.025515
 **** Fit       0.022836
 **** Fit       0.020264
 **** Fit       0.018009
 **** Fit       0.016117
 **** Fit       0.015813
 **** Fit       0.017459
 **** Fit       0.019329
 **** Fit       0.021350
 **** Fit       0.023337
 **** Fit       0.024985
 **** Fit       0.025934
 **** Fit       0.025928
 **** Fit       0.024970
 **** Fit       0.023316
 **** Fit       0.021327
 **** Fit       0.019308
 **** Fit       0.017441
 **** Fit       0.015797
 **** Fit       0.016776
 **** Fit       0.018299
 **** Fit       0.019866
 **** Fit       0.021333
 **** Fit       0.022500
 **** Fit       0.023151
 **** Fit       0.023148
 **** Fit       0.022489
 **** Fit       0.021319
 **** Fit       0.019850
 **** Fit       0.018283
 **** Fit       0.016762
 **** Fit       0.017276
 **** Fit       0.018494
 **** Fit       0.019589
 **** Fit       0.020431
 **** Fit       0.020891
 **** Fit       0.020888
 **** Fit       0.020424
 **** Fit       0.019580
 **** Fit       0.018482
 **** Fit       0.017264
 **** Fit       0.018086
 **** Fit       0.018710
 **** Fit       0.019044
 **** Fit       0.019043
 **** Fit       0.018705
 **** Fit       0.018080
 **** Fit       0.017502
 **** Fit       0.017801
 **** Fit       0.017796
 **** Fit       0.017489
 **** Fit       0.016902
 **** Fit       0.017785
 **** Fit       0.018443
 **** Fit       0.018794
 **** Fit       0.018789
 **** Fit       0.018428
 **** Fit       0.017762
 **** Fit       0.016873
 **** Fit       0.016393
 **** Fit       0.017524
 **** Fit       0.018520
 **** Fit       0.019272
 **** Fit       0.019677
 **** Fit       0.019671
 **** Fit       0.019255
 **** Fit       0.018495
 **** Fit       0.017493
 **** Fit       0.016774
 **** Fit       0.018004
 **** Fit       0.019103
 **** Fit       0.019943
 **** Fit       0.020398
 **** Fit       0.020392
 **** Fit       0.019924
 **** Fit       0.019075
 **** Fit       0.017971
 **** Fit       0.016739
 **** Fit       0.017029
 **** Fit       0.018339
 **** Fit       0.019524
 **** Fit       0.020438
 **** Fit       0.020938
 **** Fit       0.020931
 **** Fit       0.020419
 **** Fit       0.019495
 **** Fit       0.018304
 **** Fit       0.016992
 **** Fit       0.015819
 **** Fit       0.017191
 **** Fit       0.018568
 **** Fit       0.019827
 **** Fit       0.020806
 **** Fit       0.021344
 **** Fit       0.021337
 **** Fit       0.020787
 **** Fit       0.019798
 **** Fit       0.018534
 **** Fit       0.017155
 **** Fit       0.015783
 **** Fit       0.015901
 **** Fit       0.017327
 **** Fit       0.018777
 **** Fit       0.020119
 **** Fit       0.021172
 **** Fit       0.021754
 **** Fit       0.021747
 **** Fit       0.021152
 **** Fit       0.020090
 **** Fit       0.018743
 **** Fit       0.017291
 **** Fit       0.015866
 **** Fit       0.016012
 **** Fit       0.017517
 **** Fit       0.019076
 **** Fit       0.020544
 **** Fit       0.021714
 **** Fit       0.022368
 **** Fit       0.022360
 **** Fit       0.021694
 **** Fit       0.020515
 **** Fit       0.019042
 **** Fit       0.017482
 **** Fit       0.015978
 **** Fit       0.014751
 **** Fit       0.016201
 **** Fit       0.017828
 **** Fit       0.019559
 **** Fit       0.021234
 **** Fit       0.022604
 **** Fit       0.023384
 **** Fit       0.023376
 **** Fit       0.022583
 **** Fit       0.021204
 **** Fit       0.019525
 **** Fit       0.017794
 **** Fit       0.016169
 **** Fit       0.014721
 **** Fit       0.014929
 **** Fit       0.016486
 **** Fit       0.018282
 **** Fit       0.020255
 **** Fit       0.022234
 **** Fit       0.023907
 **** Fit       0.024884
 **** Fit       0.024875
 **** Fit       0.023884
 **** Fit       0.022202
 **** Fit       0.020220
 **** Fit       0.018248
 **** Fit       0.016455
 **** Fit       0.014901
 **** Fit       0.015159
 **** Fit       0.016838
 **** Fit       0.018826
 **** Fit       0.021078
 **** Fit       0.023415
 **** Fit       0.025455
 **** Fit       0.026674
 **** Fit       0.026665
 **** Fit       0.025429
 **** Fit       0.023380
 **** Fit       0.021041
 **** Fit       0.018791
 **** Fit       0.016808
 **** Fit       0.015132
 **** Fit       0.015396
 **** Fit       0.017181
 **** Fit       0.019330
 **** Fit       0.021814
 **** Fit       0.024445
 **** Fit       0.026788
 **** Fit       0.028209
 **** Fit       0.028198
 **** Fit       0.026760
 **** Fit       0.024408
 **** Fit       0.021776
 **** Fit       0.019295
 **** Fit       0.017151
 **** Fit       0.015371
 **** Fit       0.015579
 **** Fit       0.017417
 **** Fit       0.019635
 **** Fit       0.022205
 **** Fit       0.024932
 **** Fit       0.027361
 **** Fit       0.028834
 **** Fit       0.028824
 **** Fit       0.027333
 **** Fit       0.024896
 **** Fit       0.022168
 **** Fit       0.019602
 **** Fit       0.017389
 **** Fit       0.015556
 **** Fit       0.015654
 **** Fit       0.017467
 **** Fit       0.019628
 **** Fit       0.022094
 **** Fit       0.024665
 **** Fit       0.026917
 **** Fit       0.028265
 **** Fit       0.028255
 **** Fit       0.026892
 **** Fit       0.024633
 **** Fit       0.022060
 **** Fit       0.019597
 **** Fit       0.017441
 **** Fit       0.015633
 **** Fit       0.015589
 **** Fit       0.017299
 **** Fit       0.019289
 **** Fit       0.021496
 **** Fit       0.023729
 **** Fit       0.025628
 **** Fit       0.026741
 **** Fit       0.026733
 **** Fit       0.025608
 **** Fit       0.023702
 **** Fit       0.021468
 **** Fit       0.019263
 **** Fit       0.017277
 **** Fit       0.015570
 **** Fit       0.015381
 **** Fit       0.016934
 **** Fit       0.018684
 **** Fit       0.020557
 **** Fit       0.022382
 **** Fit       0.023884
 **** Fit       0.024744
 **** Fit       0.024738
 **** Fit       0.023869
 **** Fit       0.022362
 **** Fit       0.020534
 **** Fit       0.018662
 **** Fit       0.016914
 **** Fit       0.016419
 **** Fit       0.017909
 **** Fit       0.019446
 **** Fit       0.020888
 **** Fit       0.022036
 **** Fit       0.022678
 **** Fit       0.022674
 **** Fit       0.022025
 **** Fit       0.020873
 **** Fit       0.019429
 **** Fit       0.017893
 **** Fit       0.016404
 **** Fit       0.017056
 **** Fit       0.018295
 **** Fit       0.019417
 **** Fit       0.020285
 **** Fit       0.020761
 **** Fit       0.020758
 **** Fit       0.020278
 **** Fit       0.019406
 **** Fit       0.018282
 **** Fit       0.017043
 **** Fit       0.018054
 **** Fit       0.018713
 **** Fit       0.019068
 **** Fit       0.019066
 **** Fit       0.018708
 **** Fit       0.018046
 **** Fit       0.017231
 **** Fit       0.017519
 **** Fit       0.017515
 **** Fit       0.017219
 **** Fit       0.017196
 **** Fit       0.017796
 **** Fit       0.018115
 **** Fit       0.018110
 **** Fit       0.017783
 **** Fit       0.017177
 **** Fit       0.016743
 **** Fit       0.017610
 **** Fit       0.018259
 **** Fit       0.018606
 **** Fit       0.018601
 **** Fit       0.018245
 **** Fit       0.017590
 **** Fit       0.016718
 **** Fit       0.017034
 **** Fit       0.017958
 **** Fit       0.018655
 **** Fit       0.019029
 **** Fit       0.019024
 **** Fit       0.018641
 **** Fit       0.017938
 **** Fit       0.017008
 **** Fit       0.017311
 **** Fit       0.018301
 **** Fit       0.019053
 **** Fit       0.019459
 **** Fit       0.019454
 **** Fit       0.019039
 **** Fit       0.018281
 **** Fit       0.017286
 **** Fit       0.016438
 **** Fit       0.017634
 **** Fit       0.018712
 **** Fit       0.019541
 **** Fit       0.019992
 **** Fit       0.019987
 **** Fit       0.019527
 **** Fit       0.018691
 **** Fit       0.017609
 **** Fit       0.016411
 **** Fit       0.015438
 **** Fit       0.016736
 **** Fit       0.018045
 **** Fit       0.019247
 **** Fit       0.020187
 **** Fit       0.020705
 **** Fit       0.020700
 **** Fit       0.020172
 **** Fit       0.019226
 **** Fit       0.018020
 **** Fit       0.016709
 **** Fit       0.015412
 **** Fit       0.015688
 **** Fit       0.017094
 **** Fit       0.018545
 **** Fit       0.019907
 **** Fit       0.020992
 **** Fit       0.021600
 **** Fit       0.021594
 **** Fit       0.020977
 **** Fit       0.019885
 **** Fit       0.018519
 **** Fit       0.017068
 **** Fit       0.015662
 **** Fit       0.015952
 **** Fit       0.017473
 **** Fit       0.019071
 **** Fit       0.020604
 **** Fit       0.021849
 **** Fit       0.022555
 **** Fit       0.022549
 **** Fit       0.021833
 **** Fit       0.020582
 **** Fit       0.019046
 **** Fit       0.017446
 **** Fit       0.015928
 **** Fit       0.014746
 **** Fit       0.016182
 **** Fit       0.017791
 **** Fit       0.019506
 **** Fit       0.021172
 **** Fit       0.022540
 **** Fit       0.023323
 **** Fit       0.023317
 **** Fit       0.022524
 **** Fit       0.021149
 **** Fit       0.019480
 **** Fit       0.017765
 **** Fit       0.016158
 **** Fit       0.014725
 **** Fit       0.014853
 **** Fit       0.016315
 **** Fit       0.017958
 **** Fit       0.019714
 **** Fit       0.021423
 **** Fit       0.022829
 **** Fit       0.023634
 **** Fit       0.023628
 **** Fit       0.022813
 **** Fit       0.021401
 **** Fit       0.019689
 **** Fit       0.017934
 **** Fit       0.016293
 **** Fit       0.014833
 **** Fit       0.016304
 **** Fit       0.017909
 **** Fit       0.019609
 **** Fit       0.021249
 **** Fit       0.022587
 **** Fit       0.023348
 **** Fit       0.023343
 **** Fit       0.022572
 **** Fit       0.021229
 **** Fit       0.019586
 **** Fit       0.017887
 **** Fit       0.016284
 **** Fit       0.016130
 **** Fit       0.017629
 **** Fit       0.019189
 **** Fit       0.020667
 **** Fit       0.021853
 **** Fit       0.022521
 **** Fit       0.022516
 **** Fit       0.021841
 **** Fit       0.020650
 **** Fit       0.019170
 **** Fit       0.017610
 **** Fit       0.016112
 **** Fit       0.017152
 **** Fit       0.018522
 **** Fit       0.019789
 **** Fit       0.020786
 **** Fit       0.021339
 **** Fit       0.021335
 **** Fit       0.020776
 **** Fit       0.019775
 **** Fit       0.018505
 **** Fit       0.017136
 **** Fit       0.016537
 **** Fit       0.017701
 **** Fit       0.018752
 **** Fit       0.019561
 **** Fit       0.020004
 **** Fit       0.020001
 **** Fit       0.019554
 **** Fit       0.018741
 **** Fit       0.017688
 **** Fit       0.016523
 **** Fit       0.017669
 **** Fit       0.018314
 **** Fit       0.018663
 **** Fit       0.018661
 **** Fit       0.018309
 **** Fit       0.017661
 **** Fit       0.017554
 **** Fit       0.017551
 **** Fit       0.017073
 **** Fit       0.017678
 **** Fit       0.018001
 **** Fit       0.017998
 **** Fit       0.017668
 **** Fit       0.017058
 **** Fit       0.016604
 **** Fit       0.017488
 **** Fit       0.018156
 **** Fit       0.018517
 **** Fit       0.018513
 **** Fit       0.018146
 **** Fit       0.017473
 **** Fit       0.016585
 **** Fit       0.015884
 **** Fit       0.016967
 **** Fit       0.017938
 **** Fit       0.018682
 **** Fit       0.019086
 **** Fit       0.019083
 **** Fit       0.018671
 **** Fit       0.017923
 **** Fit       0.016948
 **** Fit       0.015863
 **** Fit       0.016148
 **** Fit       0.017312
 **** Fit       0.018369
 **** Fit       0.019187
 **** Fit       0.019636
 **** Fit       0.019633
 **** Fit       0.019177
 **** Fit       0.018353
 **** Fit       0.017293
 **** Fit       0.016128
 **** Fit       0.016348
 **** Fit       0.017571
 **** Fit       0.018691
 **** Fit       0.019565
 **** Fit       0.020046
 **** Fit       0.020043
 **** Fit       0.019554
 **** Fit       0.018676
 **** Fit       0.017553
 **** Fit       0.016329
 **** Fit       0.016432
 **** Fit       0.017673
 **** Fit       0.018811
 **** Fit       0.019700
 **** Fit       0.020191
 **** Fit       0.020187
 **** Fit       0.019690
 **** Fit       0.018797
 **** Fit       0.017656
 **** Fit       0.016414
 **** Fit       0.016363
 **** Fit       0.017570
 **** Fit       0.018672
 **** Fit       0.019528
 **** Fit       0.020000
 **** Fit       0.019997
 **** Fit       0.019519
 **** Fit       0.018658
 **** Fit       0.017554
 **** Fit       0.016346
 **** Fit       0.016130
 **** Fit       0.017256
 **** Fit       0.018273
 **** Fit       0.019056
 **** Fit       0.019485
 **** Fit       0.019482
 **** Fit       0.019048
 **** Fit       0.018261
 **** Fit       0.017242
 **** Fit       0.016115
 **** Fit       0.016764
 **** Fit       0.017666
 **** Fit       0.018351
 **** Fit       0.018723
 **** Fit       0.018721
 **** Fit       0.018344
 **** Fit       0.017656
 **** Fit       0.016752
 **** Fit       0.016923
 **** Fit       0.017504
 **** Fit       0.017817
 **** Fit       0.017815
 **** Fit       0.017499
 **** Fit       0.016915
 **** Fit       0.016683
 **** Fit       0.016681
 **** Fit       0.016253
 **** Fit       0.016782
 **** Fit       0.017065
 **** Fit       0.017063
 **** Fit       0.016775
 **** Fit       0.016241
 **** Fit       0.016530
 **** Fit       0.017098
 **** Fit       0.017402
 **** Fit       0.017400
 **** Fit       0.017090
 **** Fit       0.016519
 **** Fit       0.015931
 **** Fit       0.016719
 **** Fit       0.017312
 **** Fit       0.017631
 **** Fit       0.017629
 **** Fit       0.017305
 **** Fit       0.016708
 **** Fit       0.015917
 **** Fit       0.015974
 **** Fit       0.016768
 **** Fit       0.017367
 **** Fit       0.017690
 **** Fit       0.017688
 **** Fit       0.017360
 **** Fit       0.016758
 **** Fit       0.015961
 **** Fit       0.016648
 **** Fit       0.017229
 **** Fit       0.017541
 **** Fit       0.017539
 **** Fit       0.017222
 **** Fit       0.016638
 **** Fit       0.016896
 **** Fit       0.017186
 **** Fit       0.017184
 **** Fit       0.016890
 -----------------------------------------------------------------
 Leave Link  602 at Thu Apr 21 15:08:11 2022, MaxMem=   104857600 cpu:               2.3 elap:               2.3
 (Enter /opt/ohpc/pub/libs/gaussian/g16-A.03/haswell/g16/l9999.exe)

 Test job not archived.
 1\1\GINC-CASCADEB060\SP\RB3LYP\6-311++G(d,p)\C9H12N2O2\MNG228\21-Apr-2
 022\0\\#P B3LYP/6-311++G(d,p) Geom=Allcheck SCF=Tight EmpiricalDispers
 ion=GD3BJ Pop=CHELPG SP IOp(6/33=2)\\MAA1-VI1 geo opt\\0,1\C,0,11.7870
 600367,13.2553723674,11.6524084858\C,0,12.6601867945,12.2584433052,12.
 366781533\C,0,13.0104287564,11.0922679807,11.8204912978\C,0,13.1809202
 91,12.5512831809,13.7574764904\O,0,13.8826353786,11.7760652664,14.3622
 004515\O,0,12.8375331567,13.7207296333,14.3192533517\H,0,12.30034639,1
 4.2120367304,11.5172651707\H,0,10.8696890351,13.4577883875,12.21311769
 74\H,0,11.5083868816,12.8759671094,10.6682040826\H,0,12.6761263561,10.
 8123222623,10.82790517\H,0,13.6401814993,10.4014725383,12.3663692646\H
 ,0,12.2635623419,14.3279502872,13.7935812491\C,0,8.9369920612,19.80623
 84972,12.8680108595\C,0,9.3528700661,18.6182123906,12.4408787105\N,0,1
 0.1710282101,17.7273158966,13.1600028722\C,0,10.7121009381,17.87505580
 66,14.4297913967\C,0,11.425734171,16.73508573,14.6664534408\N,0,11.339
 7148953,15.8881230881,13.5774360329\C,0,10.5874368549,16.504957227,12.
 697816021\H,0,8.3084658238,20.4112029065,12.2298461057\H,0,9.197726743
 2,20.2091128769,13.8377670655\H,0,9.0781510425,18.2363710264,11.465163
 4442\H,0,10.5433929097,18.75197889,15.0280967043\H,0,11.9945006957,16.
 4627783315,15.5405563701\H,0,10.3078286705,16.1338682837,11.7241267319
 \\Version=ES64L-G16RevA.03\State=1-A\HF=-610.3196737\RMSD=5.139e-09\Di
 pole=-2.0888799,2.5358089,-1.5587317\Quadrupole=-4.8876668,2.5789251,2
 .3087417,1.5064718,-2.2138828,9.171093\PG=C01 [X(C9H12N2O2)]\\@


 IT IS A QUALITY OF REVOLUTIONS NOT TO GO BY OLD LINES OR OLD LAWS,
 BUT TO BREAK UP BOTH, AND MAKE NEW ONES.
                                              -- A. LINCOLN (1848)
 Job cpu time:       0 days  0 hours  5 minutes 24.7 seconds.
 Elapsed time:       0 days  0 hours  5 minutes 26.1 seconds.
 File lengths (MBytes):  RWF=    304 Int=      0 D2E=      0 Chk=     32 Scr=     32
 Normal termination of Gaussian 16 at Thu Apr 21 15:08:11 2022.
