 Entering Gaussian System, Link 0=g16
 Initial command:
 /opt/ohpc/pub/libs/gaussian/g16-A.03/haswell/g16/l1.exe "g16_scratch/Gau-184295.inp" -scrdir="g16_scratch/"
 Entering Link 1 = /opt/ohpc/pub/libs/gaussian/g16-A.03/haswell/g16/l1.exe PID=    184297.
  
 Copyright (c) 1988,1990,1992,1993,1995,1998,2003,2009,2016,
            Gaussian, Inc.  All Rights Reserved.
  
 This is part of the Gaussian(R) 16 program.  It is based on
 the Gaussian(R) 09 system (copyright 2009, Gaussian, Inc.),
 the Gaussian(R) 03 system (copyright 2003, Gaussian, Inc.),
 the Gaussian(R) 98 system (copyright 1998, Gaussian, Inc.),
 the Gaussian(R) 94 system (copyright 1995, Gaussian, Inc.),
 the Gaussian 92(TM) system (copyright 1992, Gaussian, Inc.),
 the Gaussian 90(TM) system (copyright 1990, Gaussian, Inc.),
 the Gaussian 88(TM) system (copyright 1988, Gaussian, Inc.),
 the Gaussian 86(TM) system (copyright 1986, Carnegie Mellon
 University), and the Gaussian 82(TM) system (copyright 1983,
 Carnegie Mellon University). Gaussian is a federally registered
 trademark of Gaussian, Inc.
  
 This software contains proprietary and confidential information,
 including trade secrets, belonging to Gaussian, Inc.
  
 This software is provided under written license and may be
 used, copied, transmitted, or stored only in accord with that
 written license.
  
 The following legend is applicable only to US Government
 contracts under FAR:
  
                    RESTRICTED RIGHTS LEGEND
  
 Use, reproduction and disclosure by the US Government is
 subject to restrictions as set forth in subparagraphs (a)
 and (c) of the Commercial Computer Software - Restricted
 Rights clause in FAR 52.227-19.
  
 Gaussian, Inc.
 340 Quinnipiac St., Bldg. 40, Wallingford CT 06492
  
  
 ---------------------------------------------------------------
 Warning -- This program may not be used in any manner that
 competes with the business of Gaussian, Inc. or will provide
 assistance to any competitor of Gaussian, Inc.  The licensee
 of this program is prohibited from giving any competitor of
 Gaussian, Inc. access to this program.  By using this program,
 the user acknowledges that Gaussian, Inc. is engaged in the
 business of creating and licensing software in the field of
 computational chemistry and represents and warrants to the
 licensee that it is not a competitor of Gaussian, Inc. and that
 it will not use this program in any manner prohibited above.
 ---------------------------------------------------------------
  

 Cite this work as:
 Gaussian 16, Revision A.03,
 M. J. Frisch, G. W. Trucks, H. B. Schlegel, G. E. Scuseria, 
 M. A. Robb, J. R. Cheeseman, G. Scalmani, V. Barone, 
 G. A. Petersson, H. Nakatsuji, X. Li, M. Caricato, A. V. Marenich, 
 J. Bloino, B. G. Janesko, R. Gomperts, B. Mennucci, H. P. Hratchian, 
 J. V. Ortiz, A. F. Izmaylov, J. L. Sonnenberg, D. Williams-Young, 
 F. Ding, F. Lipparini, F. Egidi, J. Goings, B. Peng, A. Petrone, 
 T. Henderson, D. Ranasinghe, V. G. Zakrzewski, J. Gao, N. Rega, 
 G. Zheng, W. Liang, M. Hada, M. Ehara, K. Toyota, R. Fukuda, 
 J. Hasegawa, M. Ishida, T. Nakajima, Y. Honda, O. Kitao, H. Nakai, 
 T. Vreven, K. Throssell, J. A. Montgomery, Jr., J. E. Peralta, 
 F. Ogliaro, M. J. Bearpark, J. J. Heyd, E. N. Brothers, K. N. Kudin, 
 V. N. Staroverov, T. A. Keith, R. Kobayashi, J. Normand, 
 K. Raghavachari, A. P. Rendell, J. C. Burant, S. S. Iyengar, 
 J. Tomasi, M. Cossi, J. M. Millam, M. Klene, C. Adamo, R. Cammi, 
 J. W. Ochterski, R. L. Martin, K. Morokuma, O. Farkas, 
 J. B. Foresman, and D. J. Fox, Gaussian, Inc., Wallingford CT, 2016.
 
 ******************************************
 Gaussian 16:  ES64L-G16RevA.03 25-Dec-2016
                21-Apr-2022 
 ******************************************
 %Mem=192GB
 %NProcShared=48
 Will use up to   48 processors via shared memory.
 %Chk=MAA1-VI1-2.chk
 ---------------------------------------------------------------------
 #n B3LYP/6-311++G(d,p) Opt freq EmpiricalDispersion=GD3BJ IOp(6/33=2)
 ---------------------------------------------------------------------
 1/18=20,19=15,26=3,38=1/1,3;
 2/9=110,12=2,17=6,18=5,40=1/2;
 3/5=4,6=6,7=1111,11=2,25=1,30=1,71=1,74=-5,124=41/1,2,3;
 4//1;
 5/5=2,38=5/2;
 6/7=2,8=2,9=2,10=2,28=1,33=2/1;
 7//1,2,3,16;
 1/18=20,19=15,26=3/3(2);
 2/9=110/2;
 99//99;
 2/9=110/2;
 3/5=4,6=6,7=1111,11=2,25=1,30=1,71=1,74=-5,124=41/1,2,3;
 4/5=5,16=3,69=1/1;
 5/5=2,38=5/2;
 7//1,2,3,16;
 1/18=20,19=15,26=3/3(-5);
 2/9=110/2;
 6/7=2,8=2,9=2,10=2,19=2,28=1,33=2/1;
 99/9=1/99;
 ----------------
 MAA1-VI1 geo opt
 ----------------
 Symbolic Z-matrix:
 Charge =  0 Multiplicity = 1
 C                     13.341    11.89     11.831 
 C                     12.476    12.831    12.515 
 C                     12.385    14.161    12.119 
 C                     11.6      12.311    13.502 
 O                     10.755    12.958    14.112 
 O                     11.697    10.974    13.85 
 H                     12.771    11.058    11.418 
 H                     14.102    11.435    12.465 
 H                     13.918    12.418    11.072 
 H                     13.018    14.589    11.356 
 H                     11.579    14.792    12.464 
 H                     12.356    10.583    13.296 
 C                     12.706    14.52     17.773 
 C                     13.604    13.514    17.754 
 N                     14.265    13.13     16.664 
 C                     14.95     13.931    15.832 
 C                     15.221    13.118    14.75 
 N                     14.722    11.837    14.987 
 C                     13.976    11.962    16.034 
 H                     12.102    14.726    18.645 
 H                     12.465    15.161    16.939 
 H                     13.702    12.907    18.642 
 H                     15.181    14.966    16.041 
 H                     15.805    13.309    13.862 
 H                     13.383    11.129    16.381 
 
 Add virtual bond connecting atoms N18        and H8         Dist= 4.97D+00.

 GradGradGradGradGradGradGradGradGradGradGradGradGradGradGradGradGradGrad
 Berny optimization.
 Initialization pass.
                           ----------------------------
                           !    Initial Parameters    !
                           ! (Angstroms and Degrees)  !
 --------------------------                            --------------------------
 ! Name  Definition              Value          Derivative Info.                !
 --------------------------------------------------------------------------------
 ! R1    R(1,2)                  1.4497         estimate D2E/DX2                !
 ! R2    R(1,7)                  1.0898         estimate D2E/DX2                !
 ! R3    R(1,8)                  1.09           estimate D2E/DX2                !
 ! R4    R(1,9)                  1.0899         estimate D2E/DX2                !
 ! R5    R(2,3)                  1.3907         estimate D2E/DX2                !
 ! R6    R(2,4)                  1.4184         estimate D2E/DX2                !
 ! R7    R(3,10)                 1.0798         estimate D2E/DX2                !
 ! R8    R(3,11)                 1.0802         estimate D2E/DX2                !
 ! R9    R(4,5)                  1.2267         estimate D2E/DX2                !
 ! R10   R(4,6)                  1.3849         estimate D2E/DX2                !
 ! R11   R(6,12)                 0.9456         estimate D2E/DX2                !
 ! R12   R(8,18)                 2.628          estimate D2E/DX2                !
 ! R13   R(13,14)                1.3486         estimate D2E/DX2                !
 ! R14   R(13,20)                1.0806         estimate D2E/DX2                !
 ! R15   R(13,21)                1.0791         estimate D2E/DX2                !
 ! R16   R(14,15)                1.3313         estimate D2E/DX2                !
 ! R17   R(14,22)                1.0801         estimate D2E/DX2                !
 ! R18   R(15,16)                1.3428         estimate D2E/DX2                !
 ! R19   R(15,19)                1.3582         estimate D2E/DX2                !
 ! R20   R(16,17)                1.3803         estimate D2E/DX2                !
 ! R21   R(16,23)                1.0809         estimate D2E/DX2                !
 ! R22   R(17,18)                1.395          estimate D2E/DX2                !
 ! R23   R(17,24)                1.0799         estimate D2E/DX2                !
 ! R24   R(18,19)                1.2916         estimate D2E/DX2                !
 ! R25   R(19,25)                1.0798         estimate D2E/DX2                !
 ! A1    A(2,1,7)              111.2401         estimate D2E/DX2                !
 ! A2    A(2,1,8)              114.3999         estimate D2E/DX2                !
 ! A3    A(2,1,9)              109.27           estimate D2E/DX2                !
 ! A4    A(7,1,8)              105.48           estimate D2E/DX2                !
 ! A5    A(7,1,9)              112.5099         estimate D2E/DX2                !
 ! A6    A(8,1,9)              103.7495         estimate D2E/DX2                !
 ! A7    A(1,2,3)              121.7003         estimate D2E/DX2                !
 ! A8    A(1,2,4)              117.3133         estimate D2E/DX2                !
 ! A9    A(3,2,4)              120.553          estimate D2E/DX2                !
 ! A10   A(2,3,10)             122.8135         estimate D2E/DX2                !
 ! A11   A(2,3,11)             121.1007         estimate D2E/DX2                !
 ! A12   A(10,3,11)            115.5655         estimate D2E/DX2                !
 ! A13   A(2,4,5)              125.3163         estimate D2E/DX2                !
 ! A14   A(2,4,6)              119.0453         estimate D2E/DX2                !
 ! A15   A(5,4,6)              115.6247         estimate D2E/DX2                !
 ! A16   A(4,6,12)             107.505          estimate D2E/DX2                !
 ! A17   A(1,8,18)             131.2269         estimate D2E/DX2                !
 ! A18   A(14,13,20)           121.7199         estimate D2E/DX2                !
 ! A19   A(14,13,21)           125.5143         estimate D2E/DX2                !
 ! A20   A(20,13,21)           112.6809         estimate D2E/DX2                !
 ! A21   A(13,14,15)           123.868          estimate D2E/DX2                !
 ! A22   A(13,14,22)           117.9075         estimate D2E/DX2                !
 ! A23   A(15,14,22)           117.7731         estimate D2E/DX2                !
 ! A24   A(14,15,16)           126.0515         estimate D2E/DX2                !
 ! A25   A(14,15,19)           121.4777         estimate D2E/DX2                !
 ! A26   A(16,15,19)           109.52           estimate D2E/DX2                !
 ! A27   A(15,16,17)           103.563          estimate D2E/DX2                !
 ! A28   A(15,16,23)           124.0854         estimate D2E/DX2                !
 ! A29   A(17,16,23)           132.3487         estimate D2E/DX2                !
 ! A30   A(16,17,18)           109.7223         estimate D2E/DX2                !
 ! A31   A(16,17,24)           130.2883         estimate D2E/DX2                !
 ! A32   A(18,17,24)           119.7073         estimate D2E/DX2                !
 ! A33   A(8,18,17)             93.544          estimate D2E/DX2                !
 ! A34   A(8,18,19)            131.0289         estimate D2E/DX2                !
 ! A35   A(17,18,19)           104.7994         estimate D2E/DX2                !
 ! A36   A(15,19,18)           109.6534         estimate D2E/DX2                !
 ! A37   A(15,19,25)           129.1401         estimate D2E/DX2                !
 ! A38   A(18,19,25)           120.1998         estimate D2E/DX2                !
 ! D1    D(7,1,2,3)           -120.0927         estimate D2E/DX2                !
 ! D2    D(7,1,2,4)             52.3887         estimate D2E/DX2                !
 ! D3    D(8,1,2,3)            120.5173         estimate D2E/DX2                !
 ! D4    D(8,1,2,4)            -67.0012         estimate D2E/DX2                !
 ! D5    D(9,1,2,3)              4.7278         estimate D2E/DX2                !
 ! D6    D(9,1,2,4)            177.2093         estimate D2E/DX2                !
 ! D7    D(2,1,8,18)            -3.6111         estimate D2E/DX2                !
 ! D8    D(7,1,8,18)          -126.1867         estimate D2E/DX2                !
 ! D9    D(9,1,8,18)           115.3406         estimate D2E/DX2                !
 ! D10   D(1,2,3,10)            -6.3631         estimate D2E/DX2                !
 ! D11   D(1,2,3,11)           164.9932         estimate D2E/DX2                !
 ! D12   D(4,2,3,10)          -178.6043         estimate D2E/DX2                !
 ! D13   D(4,2,3,11)            -7.248          estimate D2E/DX2                !
 ! D14   D(1,2,4,5)           -175.5013         estimate D2E/DX2                !
 ! D15   D(1,2,4,6)              5.9061         estimate D2E/DX2                !
 ! D16   D(3,2,4,5)             -2.9289         estimate D2E/DX2                !
 ! D17   D(3,2,4,6)            178.4785         estimate D2E/DX2                !
 ! D18   D(2,4,6,12)            -3.074          estimate D2E/DX2                !
 ! D19   D(5,4,6,12)           178.1997         estimate D2E/DX2                !
 ! D20   D(1,8,18,17)          -68.6631         estimate D2E/DX2                !
 ! D21   D(1,8,18,19)           44.4873         estimate D2E/DX2                !
 ! D22   D(20,13,14,15)        172.4649         estimate D2E/DX2                !
 ! D23   D(20,13,14,22)          0.3614         estimate D2E/DX2                !
 ! D24   D(21,13,14,15)         -3.9354         estimate D2E/DX2                !
 ! D25   D(21,13,14,22)       -176.0388         estimate D2E/DX2                !
 ! D26   D(13,14,15,16)         50.7731         estimate D2E/DX2                !
 ! D27   D(13,14,15,19)       -107.7044         estimate D2E/DX2                !
 ! D28   D(22,14,15,16)       -137.1136         estimate D2E/DX2                !
 ! D29   D(22,14,15,19)         64.4089         estimate D2E/DX2                !
 ! D30   D(14,15,16,17)       -168.8692         estimate D2E/DX2                !
 ! D31   D(14,15,16,23)         10.579          estimate D2E/DX2                !
 ! D32   D(19,15,16,17)         -8.2569         estimate D2E/DX2                !
 ! D33   D(19,15,16,23)        171.1914         estimate D2E/DX2                !
 ! D34   D(14,15,19,18)        178.0503         estimate D2E/DX2                !
 ! D35   D(14,15,19,25)        -13.6233         estimate D2E/DX2                !
 ! D36   D(16,15,19,18)         16.3926         estimate D2E/DX2                !
 ! D37   D(16,15,19,25)       -175.281          estimate D2E/DX2                !
 ! D38   D(15,16,17,18)         -1.7932         estimate D2E/DX2                !
 ! D39   D(15,16,17,24)       -175.541          estimate D2E/DX2                !
 ! D40   D(23,16,17,18)        178.8251         estimate D2E/DX2                !
 ! D41   D(23,16,17,24)          5.0773         estimate D2E/DX2                !
 ! D42   D(16,17,18,8)         145.5974         estimate D2E/DX2                !
 ! D43   D(16,17,18,19)         11.4404         estimate D2E/DX2                !
 ! D44   D(24,17,18,8)         -39.8909         estimate D2E/DX2                !
 ! D45   D(24,17,18,19)       -174.0479         estimate D2E/DX2                !
 ! D46   D(8,18,19,15)        -124.8648         estimate D2E/DX2                !
 ! D47   D(8,18,19,25)          65.5968         estimate D2E/DX2                !
 ! D48   D(17,18,19,15)        -16.5249         estimate D2E/DX2                !
 ! D49   D(17,18,19,25)        173.9367         estimate D2E/DX2                !
 --------------------------------------------------------------------------------
 Trust Radius=3.00D-01 FncErr=1.00D-07 GrdErr=1.00D-06 EigMax=2.50D+02 EigMin=1.00D-04
 Number of steps in this run=    122 maximum allowed number of steps=    150.
 GradGradGradGradGradGradGradGradGradGradGradGradGradGradGradGradGradGrad

                          Input orientation:                          
 ---------------------------------------------------------------------
 Center     Atomic      Atomic             Coordinates (Angstroms)
 Number     Number       Type             X           Y           Z
 ---------------------------------------------------------------------
      1          6           0       13.341000   11.890000   11.831000
      2          6           0       12.476000   12.831000   12.515000
      3          6           0       12.385000   14.161000   12.119000
      4          6           0       11.600000   12.311000   13.502000
      5          8           0       10.755000   12.958000   14.112000
      6          8           0       11.697000   10.974000   13.850000
      7          1           0       12.771000   11.058000   11.418000
      8          1           0       14.102000   11.435000   12.465000
      9          1           0       13.918000   12.418000   11.072000
     10          1           0       13.018000   14.589000   11.356000
     11          1           0       11.579000   14.792000   12.464000
     12          1           0       12.356000   10.583000   13.296000
     13          6           0       12.706000   14.520000   17.773000
     14          6           0       13.604000   13.514000   17.754000
     15          7           0       14.265000   13.130000   16.664000
     16          6           0       14.950000   13.931000   15.832000
     17          6           0       15.221000   13.118000   14.750000
     18          7           0       14.722000   11.837000   14.987000
     19          6           0       13.976000   11.962000   16.034000
     20          1           0       12.102000   14.726000   18.645000
     21          1           0       12.465000   15.161000   16.939000
     22          1           0       13.702000   12.907000   18.642000
     23          1           0       15.181000   14.966000   16.041000
     24          1           0       15.805000   13.309000   13.862000
     25          1           0       13.383000   11.129000   16.381000
 ---------------------------------------------------------------------
                    Distance matrix (angstroms):
                    1          2          3          4          5
     1  C    0.000000
     2  C    1.449677   0.000000
     3  C    2.480790   1.390682   0.000000
     4  C    2.449605   1.418430   2.439552   0.000000
     5  O    3.609845   2.351251   2.841858   1.226676   0.000000
     6  O    2.760100   2.416095   3.691433   1.384948   2.211846
     7  H    1.089813   2.105698   3.204529   2.698945   3.864181
     8  H    1.090001   2.143640   3.240198   2.846533   4.029212
     9  H    1.089860   2.081389   2.546438   3.359981   4.420155
    10  H    2.759448   2.174307   1.079834   3.435888   3.921335
    11  H    3.453540   2.157019   1.080195   2.689469   2.599699
    12  H    2.196520   2.382827   3.766730   1.897355   2.978201
    13  C    6.528973   5.527403   5.674472   4.934000   4.432738
    14  C    6.147233   5.402406   5.801534   4.852085   4.657263
    15  N    5.074373   4.528148   5.025374   4.215594   4.343085
    16  C    4.771013   4.281725   4.518683   4.390421   4.637149
    17  C    3.682790   3.551425   4.006608   3.914127   4.514178
    18  N    3.445331   3.484729   4.368978   3.489525   4.214185
    19  C    4.251308   3.922821   4.763833   3.489728   3.880843
    20  H    7.483890   6.427115   6.556523   5.703918   5.048596
    21  H    6.128497   5.000080   4.923292   4.547933   3.971050
    22  H    6.895965   6.248918   6.771745   5.585089   5.404471
    23  H    5.529148   4.930307   4.883413   5.130215   5.229013
    24  H    3.494255   3.622863   3.931966   4.336776   5.068353
    25  H    4.613392   4.320348   5.324817   3.586761   3.924282
                    6          7          8          9         10
     6  O    0.000000
     7  H    2.659917   0.000000
     8  H    2.813320   1.734906   0.000000
     9  H    3.838654   1.812436   1.714816   0.000000
    10  H    4.586208   3.540171   3.514634   2.367255   0.000000
    11  H    4.063501   4.056814   4.199402   3.611712   1.827456
    12  H    0.945557   1.981094   2.113050   3.279214   4.499987
    13  C    5.383505   7.237105   6.296102   7.126763   6.424951
    14  C    5.032839   6.846219   5.704714   6.778564   6.514094
    15  N    4.377391   5.834872   4.531136   5.647815   5.644338
    16  C    4.822259   5.699611   4.276191   5.100176   4.919366
    17  C    4.222003   4.620425   3.050553   3.964277   4.305379
    18  N    3.344871   4.141377   2.628020   4.038713   4.864286
    19  C    3.307543   4.855584   3.609898   4.983246   5.450007
    20  H    6.101930   8.132116   7.281695   8.122503   7.347608
    21  H    5.259536   6.885469   6.048101   6.637541   5.639404
    22  H    5.542543   7.514768   6.362556   7.588852   7.508847
    23  H    5.733655   6.515573   5.140037   5.725245   5.173966
    24  H    4.725255   4.499477   2.892005   3.484071   3.960531
    25  H    3.045091   5.001095   3.993201   5.489374   6.111911
                   11         12         13         14         15
    11  H    0.000000
    12  H    4.360233   0.000000
    13  C    5.434114   5.972102   0.000000
    14  C    5.806721   5.479236   1.348629   0.000000
    15  N    5.255173   4.634103   2.364839   1.331344   0.000000
    16  C    4.842353   4.936521   3.024886   2.383210   1.342777
    17  C    4.614351   4.092501   4.174848   3.434461   2.139504
    18  N    4.997600   3.167010   4.361713   3.423236   2.166340
    19  C    5.147758   3.467374   3.343708   2.346378   1.358177
    20  H    6.203438   6.770581   1.080572   2.125754   3.339183
    21  H    4.576765   5.851616   1.079128   2.161979   2.727744
    22  H    6.799120   5.982676   2.085413   1.080091   2.068618
    23  H    5.079332   5.892906   3.053582   2.744012   2.144314
    24  H    4.691777   4.432497   5.134807   4.475946   3.202319
    25  H    5.658169   3.296979   3.727583   2.760832   2.204998
                   16         17         18         19         20
    16  C    0.000000
    17  C    1.380266   0.000000
    18  N    2.269547   1.395038   0.000000
    19  C    2.206001   2.129558   1.291646   0.000000
    20  H    4.081188   5.242600   5.347119   4.238973   0.000000
    21  H    2.985561   4.069534   4.466915   3.651814   1.797618
    22  H    3.240707   4.183246   3.942629   2.787430   2.422554
    23  H    1.080864   2.254636   3.333502   3.236679   4.039636
    24  H    2.235802   1.079852   2.145996   3.142807   6.212663
    25  H    3.257007   3.161412   2.058500   1.079790   4.439039
                   21         22         23         24         25
    21  H    0.000000
    22  H    3.083974   0.000000
    23  H    2.867243   3.632096   0.000000
    24  H    4.904430   5.237615   2.807680   0.000000
    25  H    4.172662   2.893988   4.250997   4.118719   0.000000
 Stoichiometry    C9H12N2O2
 Framework group  C1[X(C9H12N2O2)]
 Deg. of freedom    69
 Full point group                 C1      NOp   1
 Largest Abelian subgroup         C1      NOp   1
 Largest concise Abelian subgroup C1      NOp   1
                         Standard orientation:                         
 ---------------------------------------------------------------------
 Center     Atomic      Atomic             Coordinates (Angstroms)
 Number     Number       Type             X           Y           Z
 ---------------------------------------------------------------------
      1          6           0        2.785435   -1.165301   -0.073368
      2          6           0        2.224494    0.029552    0.525993
      3          6           0        2.308208    0.269639    1.893233
      4          6           0        1.728875    1.027068   -0.352226
      5          8           0        1.297381    2.122946   -0.009302
      6          8           0        1.688770    0.766277   -1.711808
      7          1           0        3.543776   -0.916117   -0.815338
      8          1           0        2.060829   -1.789489   -0.596280
      9          1           0        3.168532   -1.816036    0.712492
     10          1           0        2.699807   -0.454839    2.591677
     11          1           0        2.110283    1.250265    2.300688
     12          1           0        2.070588   -0.087820   -1.848960
     13          6           0       -3.057646    1.651471    0.669389
     14          6           0       -3.101362    0.602026   -0.176516
     15          7           0       -2.231027   -0.405208   -0.154769
     16          6           0       -1.879898   -1.123028    0.924348
     17          6           0       -0.789333   -1.848781    0.489508
     18          7           0       -0.545241   -1.571335   -0.855696
     19          6           0       -1.288187   -0.548795   -1.121765
     20          1           0       -3.705746    2.507376    0.546802
     21          1           0       -2.363705    1.768759    1.487440
     22          1           0       -3.805721    0.640983   -0.994415
     23          1           0       -2.387336   -1.071756    1.877314
     24          1           0       -0.212180   -2.610623    0.992073
     25          1           0       -1.217975   -0.061783   -2.082929
 ---------------------------------------------------------------------
 Rotational constants (GHZ):           1.1492683           0.5316861           0.4800446
 Standard basis: 6-311++G(d,p) (5D, 7F)
 There are   383 symmetry adapted cartesian basis functions of A   symmetry.
 There are   370 symmetry adapted basis functions of A   symmetry.
   370 basis functions,   576 primitive gaussians,   383 cartesian basis functions
    48 alpha electrons       48 beta electrons
       nuclear repulsion energy       782.4015264461 Hartrees.
 NAtoms=   25 NActive=   25 NUniq=   25 SFac= 1.00D+00 NAtFMM=   60 NAOKFM=F Big=F
 Integral buffers will be    131072 words long.
 Raffenetti 2 integral format.
 Two-electron integral symmetry is turned on.
 Nuclear repulsion after empirical dispersion term =      782.3585841543 Hartrees.
 One-electron integrals computed using PRISM.
 NBasis=   370 RedAO= T EigKep=  7.67D-06  NBF=   370
 NBsUse=   370 1.00D-06 EigRej= -1.00D+00 NBFU=   370
 ExpMin= 3.60D-02 ExpMax= 8.59D+03 ExpMxC= 1.30D+03 IAcc=3 IRadAn=         5 AccDes= 0.00D+00
 Harris functional with IExCor=  402 and IRadAn=       5 diagonalized for initial guess.
 HarFok:  IExCor=  402 AccDes= 0.00D+00 IRadAn=         5 IDoV= 1 UseB2=F ITyADJ=14
 ICtDFT=  3500011 ScaDFX=  1.000000  1.000000  1.000000  1.000000
 FoFCou: FMM=F IPFlag=           0 FMFlag=      100000 FMFlg1=           0
         NFxFlg=           0 DoJE=T BraDBF=F KetDBF=T FulRan=T
         wScrn=  0.000000 ICntrl=       500 IOpCl=  0 I1Cent=   200000004 NGrid=           0
         NMat0=    1 NMatS0=      1 NMatT0=    0 NMatD0=    1 NMtDS0=    0 NMtDT0=    0
 Petite list used in FoFCou.
 Requested convergence on RMS density matrix=1.00D-08 within 128 cycles.
 Requested convergence on MAX density matrix=1.00D-06.
 Requested convergence on             energy=1.00D-06.
 No special actions if energy rises.
 SCF Done:  E(RB3LYP) =  -610.267201453     A.U. after   15 cycles
            NFock= 15  Conv=0.60D-08     -V/T= 2.0033
 SCF density gives NOpUse=  1 NOpAll=  1.

 **********************************************************************

            Population analysis using the SCF density.

 **********************************************************************

 Orbital symmetries:
 BldTbl:  Degeneracy threshold= 1.00D-02
       Occupied  (A) (A) (A) (A) (A) (A) (A) (A) (A) (A) (A) (A)
                 (A) (A) (A) (A) (A) (A) (A) (A) (A) (A) (A) (A)
                 (A) (A) (A) (A) (A) (A) (A) (A) (A) (A) (A) (A)
                 (A) (A) (A) (A) (A) (A) (A) (A) (A) (A) (A) (A)
       Virtual   (A) (A) (A) (A) (A) (A) (A) (A) (A) (A) (A) (A)
                 (A) (A) (A) (A) (A) (A) (A) (A) (A) (A) (A) (A)
                 (A) (A) (A) (A) (A) (A) (A) (A) (A) (A) (A) (A)
                 (A) (A) (A) (A) (A) (A) (A) (A) (A) (A) (A) (A)
                 (A) (A) (A) (A) (A) (A) (A) (A) (A) (A) (A) (A)
                 (A) (A) (A) (A) (A) (A) (A) (A) (A) (A) (A) (A)
                 (A) (A) (A) (A) (A) (A) (A) (A) (A) (A) (A) (A)
                 (A) (A) (A) (A) (A) (A) (A) (A) (A) (A) (A) (A)
                 (A) (A) (A) (A) (A) (A) (A) (A) (A) (A) (A) (A)
                 (A) (A) (A) (A) (A) (A) (A) (A) (A) (A) (A) (A)
                 (A) (A) (A) (A) (A) (A) (A) (A) (A) (A) (A) (A)
                 (A) (A) (A) (A) (A) (A) (A) (A) (A) (A) (A) (A)
                 (A) (A) (A) (A) (A) (A) (A) (A) (A) (A) (A) (A)
                 (A) (A) (A) (A) (A) (A) (A) (A) (A) (A) (A) (A)
                 (A) (A) (A) (A) (A) (A) (A) (A) (A) (A) (A) (A)
                 (A) (A) (A) (A) (A) (A) (A) (A) (A) (A) (A) (A)
                 (A) (A) (A) (A) (A) (A) (A) (A) (A) (A) (A) (A)
                 (A) (A) (A) (A) (A) (A) (A) (A) (A) (A) (A) (A)
                 (A) (A) (A) (A) (A) (A) (A) (A) (A) (A) (A) (A)
                 (A) (A) (A) (A) (A) (A) (A) (A) (A) (A) (A) (A)
                 (A) (A) (A) (A) (A) (A) (A) (A) (A) (A) (A) (A)
                 (A) (A) (A) (A) (A) (A) (A) (A) (A) (A) (A) (A)
                 (A) (A) (A) (A) (A) (A) (A) (A) (A) (A) (A) (A)
                 (A) (A) (A) (A) (A) (A) (A) (A) (A) (A) (A) (A)
                 (A) (A) (A) (A) (A) (A) (A) (A) (A) (A) (A) (A)
                 (A) (A) (A) (A) (A) (A) (A) (A) (A) (A) (A) (A)
                 (A) (A) (A) (A) (A) (A) (A) (A) (A) (A)
 The electronic state is 1-A.
 Alpha  occ. eigenvalues --  -19.16266 -19.10084 -14.38376 -14.30063 -10.29976
 Alpha  occ. eigenvalues --  -10.22741 -10.22536 -10.20904 -10.20874 -10.20127
 Alpha  occ. eigenvalues --  -10.19222 -10.18777 -10.18165  -1.09714  -1.05777
 Alpha  occ. eigenvalues --   -1.01002  -0.91834  -0.83570  -0.78604  -0.75469
 Alpha  occ. eigenvalues --   -0.71328  -0.66280  -0.65671  -0.61718  -0.59562
 Alpha  occ. eigenvalues --   -0.58307  -0.54859  -0.51928  -0.49897  -0.47486
 Alpha  occ. eigenvalues --   -0.46991  -0.46341  -0.44964  -0.43957  -0.42933
 Alpha  occ. eigenvalues --   -0.41962  -0.41529  -0.40843  -0.40040  -0.39567
 Alpha  occ. eigenvalues --   -0.38427  -0.32552  -0.32267  -0.27932  -0.27625
 Alpha  occ. eigenvalues --   -0.27395  -0.27284  -0.23722
 Alpha virt. eigenvalues --   -0.07763  -0.03772  -0.01247  -0.00464   0.00171
 Alpha virt. eigenvalues --    0.00871   0.01476   0.01998   0.02290   0.02918
 Alpha virt. eigenvalues --    0.03498   0.03871   0.04201   0.04816   0.05577
 Alpha virt. eigenvalues --    0.05745   0.06085   0.06725   0.07704   0.08026
 Alpha virt. eigenvalues --    0.08343   0.08833   0.09354   0.09641   0.10256
 Alpha virt. eigenvalues --    0.10641   0.10838   0.11193   0.11932   0.12019
 Alpha virt. eigenvalues --    0.12433   0.12767   0.13188   0.13758   0.13867
 Alpha virt. eigenvalues --    0.13956   0.14398   0.14610   0.14918   0.15264
 Alpha virt. eigenvalues --    0.15559   0.15962   0.16359   0.16543   0.17402
 Alpha virt. eigenvalues --    0.17590   0.18129   0.18757   0.19280   0.19598
 Alpha virt. eigenvalues --    0.20028   0.20785   0.20966   0.21803   0.22624
 Alpha virt. eigenvalues --    0.22821   0.23317   0.23557   0.23997   0.25071
 Alpha virt. eigenvalues --    0.25680   0.26237   0.26602   0.27061   0.28273
 Alpha virt. eigenvalues --    0.28588   0.29240   0.29310   0.30075   0.30842
 Alpha virt. eigenvalues --    0.31286   0.31624   0.32725   0.32885   0.33180
 Alpha virt. eigenvalues --    0.33877   0.34499   0.34855   0.35336   0.36174
 Alpha virt. eigenvalues --    0.36488   0.37085   0.38010   0.38622   0.39116
 Alpha virt. eigenvalues --    0.39875   0.42078   0.42933   0.43706   0.44638
 Alpha virt. eigenvalues --    0.45323   0.46117   0.47869   0.49469   0.50261
 Alpha virt. eigenvalues --    0.51930   0.53042   0.54297   0.55086   0.56381
 Alpha virt. eigenvalues --    0.57196   0.57858   0.58839   0.60357   0.61622
 Alpha virt. eigenvalues --    0.62114   0.63898   0.64141   0.64369   0.65312
 Alpha virt. eigenvalues --    0.66506   0.66738   0.67250   0.68667   0.69374
 Alpha virt. eigenvalues --    0.70635   0.71279   0.71902   0.72894   0.73642
 Alpha virt. eigenvalues --    0.74570   0.74912   0.76089   0.76478   0.77114
 Alpha virt. eigenvalues --    0.77964   0.78586   0.80073   0.82460   0.83628
 Alpha virt. eigenvalues --    0.84968   0.86332   0.87157   0.88206   0.89711
 Alpha virt. eigenvalues --    0.92208   0.92783   0.93672   0.94604   0.96745
 Alpha virt. eigenvalues --    0.98569   0.98668   0.99652   1.01731   1.02502
 Alpha virt. eigenvalues --    1.03319   1.04575   1.06776   1.09838   1.10664
 Alpha virt. eigenvalues --    1.12169   1.12574   1.13885   1.15093   1.16840
 Alpha virt. eigenvalues --    1.19492   1.20933   1.22501   1.24240   1.24715
 Alpha virt. eigenvalues --    1.25832   1.28810   1.32623   1.34338   1.36274
 Alpha virt. eigenvalues --    1.37193   1.40634   1.42236   1.42611   1.45124
 Alpha virt. eigenvalues --    1.46851   1.47819   1.49438   1.50336   1.51532
 Alpha virt. eigenvalues --    1.52042   1.53137   1.55450   1.56274   1.58316
 Alpha virt. eigenvalues --    1.59541   1.60542   1.62025   1.63411   1.63913
 Alpha virt. eigenvalues --    1.66633   1.68108   1.69788   1.70468   1.71365
 Alpha virt. eigenvalues --    1.73387   1.75152   1.76020   1.77384   1.78528
 Alpha virt. eigenvalues --    1.79449   1.79933   1.81532   1.83220   1.83711
 Alpha virt. eigenvalues --    1.85677   1.86807   1.88841   1.90354   1.91454
 Alpha virt. eigenvalues --    1.92130   1.94825   2.00036   2.02000   2.03669
 Alpha virt. eigenvalues --    2.05181   2.05820   2.08424   2.08569   2.10527
 Alpha virt. eigenvalues --    2.11293   2.15894   2.18926   2.20272   2.23139
 Alpha virt. eigenvalues --    2.24168   2.28457   2.29040   2.32443   2.34065
 Alpha virt. eigenvalues --    2.35091   2.37991   2.42387   2.44335   2.46452
 Alpha virt. eigenvalues --    2.49549   2.50644   2.52339   2.53078   2.55084
 Alpha virt. eigenvalues --    2.55603   2.57648   2.59587   2.60592   2.62343
 Alpha virt. eigenvalues --    2.63001   2.63209   2.66286   2.68135   2.70578
 Alpha virt. eigenvalues --    2.71850   2.73063   2.74794   2.76332   2.77030
 Alpha virt. eigenvalues --    2.77838   2.79672   2.80385   2.82263   2.82859
 Alpha virt. eigenvalues --    2.85562   2.86966   2.87945   2.91190   2.91935
 Alpha virt. eigenvalues --    2.93724   2.96559   2.98941   3.00924   3.02025
 Alpha virt. eigenvalues --    3.02418   3.05468   3.08860   3.12916   3.16173
 Alpha virt. eigenvalues --    3.17122   3.19857   3.23811   3.34916   3.35897
 Alpha virt. eigenvalues --    3.37175   3.41160   3.43164   3.45819   3.55711
 Alpha virt. eigenvalues --    3.56472   3.58414   3.61602   3.66956   3.72861
 Alpha virt. eigenvalues --    3.73883   3.77112   3.80170   3.81562   3.88879
 Alpha virt. eigenvalues --    3.89581   3.92476   3.98175   4.00912   4.09048
 Alpha virt. eigenvalues --    4.10536   4.12930   4.29851   4.34455   4.52296
 Alpha virt. eigenvalues --    4.77853   5.06216   5.09613   5.10778   5.18913
 Alpha virt. eigenvalues --    5.24656   5.44746   5.64963   5.89288  23.74034
 Alpha virt. eigenvalues --   23.79870  23.83996  23.92778  23.97939  24.00598
 Alpha virt. eigenvalues --   24.07588  24.14920  24.20988  35.55948  35.71147
 Alpha virt. eigenvalues --   49.91473  50.04204
          Condensed to atoms (all electrons):
               1          2          3          4          5          6
     1  C    8.632524  -0.747187  -1.590560  -0.720335  -0.021900   0.182958
     2  C   -0.747187   8.284606  -0.627618  -1.391636  -0.236357  -0.479539
     3  C   -1.590560  -0.627618   8.064649  -0.309570   0.099643  -0.021528
     4  C   -0.720335  -1.391636  -0.309570   8.589063   0.497195   0.416163
     5  O   -0.021900  -0.236357   0.099643   0.497195   8.029156  -0.158698
     6  O    0.182958  -0.479539  -0.021528   0.416163  -0.158698   7.927438
     7  H    0.294589   0.006599  -0.020937   0.063318  -0.003264   0.010187
     8  H    0.616896  -0.217308  -0.049268  -0.000378  -0.011170   0.000138
     9  H    0.306013   0.010347   0.082072  -0.064502   0.003288  -0.007287
    10  H   -0.002554  -0.032282   0.336512   0.037276   0.001526   0.001246
    11  H    0.069072  -0.003762   0.314383  -0.030938  -0.000885   0.006091
    12  H   -0.152803   0.210582   0.103092  -0.174294   0.035104   0.188941
    13  C    0.022290   0.032367  -0.016038  -0.038909   0.006087  -0.001246
    14  C   -0.048735  -0.075648   0.028709   0.122867  -0.004978  -0.000765
    15  N   -0.005760   0.010927   0.007791   0.055591   0.005123  -0.013777
    16  C   -0.026910   0.144672   0.025754  -0.030474  -0.006047  -0.004766
    17  C   -0.012395  -0.445834  -0.011352   0.446465   0.018957   0.011855
    18  N    0.065091  -0.022978  -0.062469  -0.064364  -0.014653   0.043319
    19  C   -0.024707   0.433916   0.080612  -0.677583  -0.008158  -0.016352
    20  H   -0.001020  -0.002394   0.001921   0.000675   0.000203   0.000340
    21  H    0.001039   0.001347   0.004915  -0.014804   0.000574  -0.000363
    22  H   -0.002319   0.001709   0.001569  -0.000281   0.000208  -0.000247
    23  H    0.007317   0.001793  -0.008264   0.007055   0.000533  -0.000227
    24  H    0.003998  -0.017369  -0.003887   0.021031   0.000814   0.001121
    25  H    0.007519   0.002964   0.001168  -0.032676  -0.001480   0.009554
               7          8          9         10         11         12
     1  C    0.294589   0.616896   0.306013  -0.002554   0.069072  -0.152803
     2  C    0.006599  -0.217308   0.010347  -0.032282  -0.003762   0.210582
     3  C   -0.020937  -0.049268   0.082072   0.336512   0.314383   0.103092
     4  C    0.063318  -0.000378  -0.064502   0.037276  -0.030938  -0.174294
     5  O   -0.003264  -0.011170   0.003288   0.001526  -0.000885   0.035104
     6  O    0.010187   0.000138  -0.007287   0.001246   0.006091   0.188941
     7  H    0.619782  -0.073881  -0.016060   0.003676  -0.002060  -0.019756
     8  H   -0.073881   0.585336  -0.035307   0.001505   0.001647  -0.026163
     9  H   -0.016060  -0.035307   0.548287  -0.005759   0.000917   0.014721
    10  H    0.003676   0.001505  -0.005759   0.543074  -0.022782  -0.001251
    11  H   -0.002060   0.001647   0.000917  -0.022782   0.482143  -0.002447
    12  H   -0.019756  -0.026163   0.014721  -0.001251  -0.002447   0.548993
    13  C   -0.000292   0.005357   0.000126  -0.001110   0.002486  -0.000521
    14  C    0.000958  -0.012953   0.000019   0.001772  -0.004055   0.001320
    15  N    0.003001  -0.000070  -0.000877   0.000395   0.001359  -0.005265
    16  C   -0.000088   0.020115   0.005826  -0.007400   0.004430   0.001117
    17  C    0.002119  -0.042330  -0.015695   0.005569  -0.010769   0.000033
    18  N   -0.008616   0.056492   0.003676  -0.001058   0.000915   0.000012
    19  C   -0.007997  -0.012432   0.010937   0.002553   0.000879   0.023143
    20  H   -0.000040  -0.000326   0.000035   0.000044  -0.000065   0.000130
    21  H    0.000010   0.000367   0.000001   0.000514  -0.001063  -0.000002
    22  H    0.000024  -0.000640   0.000037   0.000017  -0.000114   0.000100
    23  H    0.000206   0.000989  -0.000171  -0.001165   0.001096  -0.000226
    24  H   -0.000161  -0.009733  -0.002150   0.001218  -0.000957   0.000023
    25  H   -0.001848  -0.002921   0.000691   0.000338   0.000028   0.002172
              13         14         15         16         17         18
     1  C    0.022290  -0.048735  -0.005760  -0.026910  -0.012395   0.065091
     2  C    0.032367  -0.075648   0.010927   0.144672  -0.445834  -0.022978
     3  C   -0.016038   0.028709   0.007791   0.025754  -0.011352  -0.062469
     4  C   -0.038909   0.122867   0.055591  -0.030474   0.446465  -0.064364
     5  O    0.006087  -0.004978   0.005123  -0.006047   0.018957  -0.014653
     6  O   -0.001246  -0.000765  -0.013777  -0.004766   0.011855   0.043319
     7  H   -0.000292   0.000958   0.003001  -0.000088   0.002119  -0.008616
     8  H    0.005357  -0.012953  -0.000070   0.020115  -0.042330   0.056492
     9  H    0.000126   0.000019  -0.000877   0.005826  -0.015695   0.003676
    10  H   -0.001110   0.001772   0.000395  -0.007400   0.005569  -0.001058
    11  H    0.002486  -0.004055   0.001359   0.004430  -0.010769   0.000915
    12  H   -0.000521   0.001320  -0.005265   0.001117   0.000033   0.000012
    13  C    5.487046   0.086851   0.025621   0.060556   0.004494   0.027141
    14  C    0.086851   5.812690   0.035802  -0.206568   0.098956  -0.046521
    15  N    0.025621   0.035802   6.885884   0.221736  -0.061058  -0.083449
    16  C    0.060556  -0.206568   0.221736   6.665949  -0.705496   0.096185
    17  C    0.004494   0.098956  -0.061058  -0.705496   6.659700   0.190932
    18  N    0.027141  -0.046521  -0.083449   0.096185   0.190932   6.851422
    19  C   -0.026004  -0.189362   0.002947  -0.152125  -0.573669   0.297836
    20  H    0.372094  -0.029916   0.011918   0.001192  -0.004108   0.000108
    21  H    0.387727   0.000919  -0.019176  -0.021945   0.015104  -0.001206
    22  H   -0.111604   0.514236  -0.104179  -0.007971  -0.014290  -0.008138
    23  H    0.001294  -0.003525  -0.079976   0.491149  -0.064062   0.007506
    24  H   -0.003760   0.014869   0.023891  -0.161542   0.528300  -0.096834
    25  H   -0.006409  -0.000612  -0.102523   0.013548   0.030460  -0.049436
              19         20         21         22         23         24
     1  C   -0.024707  -0.001020   0.001039  -0.002319   0.007317   0.003998
     2  C    0.433916  -0.002394   0.001347   0.001709   0.001793  -0.017369
     3  C    0.080612   0.001921   0.004915   0.001569  -0.008264  -0.003887
     4  C   -0.677583   0.000675  -0.014804  -0.000281   0.007055   0.021031
     5  O   -0.008158   0.000203   0.000574   0.000208   0.000533   0.000814
     6  O   -0.016352   0.000340  -0.000363  -0.000247  -0.000227   0.001121
     7  H   -0.007997  -0.000040   0.000010   0.000024   0.000206  -0.000161
     8  H   -0.012432  -0.000326   0.000367  -0.000640   0.000989  -0.009733
     9  H    0.010937   0.000035   0.000001   0.000037  -0.000171  -0.002150
    10  H    0.002553   0.000044   0.000514   0.000017  -0.001165   0.001218
    11  H    0.000879  -0.000065  -0.001063  -0.000114   0.001096  -0.000957
    12  H    0.023143   0.000130  -0.000002   0.000100  -0.000226   0.000023
    13  C   -0.026004   0.372094   0.387727  -0.111604   0.001294  -0.003760
    14  C   -0.189362  -0.029916   0.000919   0.514236  -0.003525   0.014869
    15  N    0.002947   0.011918  -0.019176  -0.104179  -0.079976   0.023891
    16  C   -0.152125   0.001192  -0.021945  -0.007971   0.491149  -0.161542
    17  C   -0.573669  -0.004108   0.015104  -0.014290  -0.064062   0.528300
    18  N    0.297836   0.000108  -0.001206  -0.008138   0.007506  -0.096834
    19  C    6.439922   0.008222   0.001010   0.012930  -0.010228   0.003961
    20  H    0.008222   0.529960  -0.040687  -0.003216   0.000783  -0.000004
    21  H    0.001010  -0.040687   0.539765   0.004761  -0.006843   0.000725
    22  H    0.012930  -0.003216   0.004761   0.524041   0.000097   0.000346
    23  H   -0.010228   0.000783  -0.006843   0.000097   0.507778  -0.005654
    24  H    0.003961  -0.000004   0.000725   0.000346  -0.005654   0.549427
    25  H    0.434596   0.001814  -0.000671  -0.001911   0.000602  -0.000098
              25
     1  C    0.007519
     2  C    0.002964
     3  C    0.001168
     4  C   -0.032676
     5  O   -0.001480
     6  O    0.009554
     7  H   -0.001848
     8  H   -0.002921
     9  H    0.000691
    10  H    0.000338
    11  H    0.000028
    12  H    0.002172
    13  C   -0.006409
    14  C   -0.000612
    15  N   -0.102523
    16  C    0.013548
    17  C    0.030460
    18  N   -0.049436
    19  C    0.434596
    20  H    0.001814
    21  H   -0.000671
    22  H   -0.001911
    23  H    0.000602
    24  H   -0.000098
    25  H    0.504991
 Mulliken charges:
               1
     1  C   -0.852122
     2  C    1.158081
     3  C   -0.431301
     4  C   -0.705953
     5  O   -0.230822
     6  O   -0.094555
     7  H    0.150530
     8  H    0.206038
     9  H    0.160814
    10  H    0.138127
    11  H    0.194453
    12  H    0.253244
    13  C   -0.315645
    14  C   -0.096330
    15  N    0.184125
    16  C   -0.420896
    17  C   -0.051887
    18  N   -0.180913
    19  C   -0.054848
    20  H    0.152337
    21  H    0.147980
    22  H    0.194835
    23  H    0.152142
    24  H    0.152426
    25  H    0.190141
 Sum of Mulliken charges =  -0.00000
 Mulliken charges with hydrogens summed into heavy atoms:
               1
     1  C   -0.334740
     2  C    1.158081
     3  C   -0.098722
     4  C   -0.705953
     5  O   -0.230822
     6  O    0.158688
    13  C   -0.015328
    14  C    0.098505
    15  N    0.184125
    16  C   -0.268754
    17  C    0.100538
    18  N   -0.180913
    19  C    0.135293
 DipInt: DoE/N= T F RetVal/Mat= T F Init=T NMatP=  1 IDeriv=0 Min/MaxMlt=  0  4
 Entering OneElI...
 OneElI was handed 25769427713 working-precision words.
 Multipole integrals L=0 to 4 MinM= 0 MaxM= 0.
 Requested accuracy = 0.1000D-12
 ShPair: Thresh= 1.00D-13 NBox=     0 BxSize= 0.00D+00 RnKept= 1.54D+01
         NSMCal=                 9591 NSMKep=                8682
 PrmmSu-InSpLW:  IPartL=    0 NPrtUS=    1 NPrtUL=    1 DoSpLW=F IThBeg=    0 IThEnd=    0 NThAct=    1.
 PrsmSu:  NPrtUS=   1 ThrOK=F IAlg=1 NPAlg=1 LenDen=           0 ISkipM=0 DoSpLW=F IThBeg=    0 IThEnd=    0.
 Prism:   IPart=     0 DynPar=F LinDyn=F Incr=          86.
 PRISM was handed 25768859863 working-precision words and  8682 shell-pairs
 IPart=  0 NShTot=        8682 NBatch=         102 AvBLen=        85.1
 PrsmSu-ThDecC:  IPartSL=    0    0 NPrtUSL=    1    1 IThBeg=    0 IThEnd=    0 CPU=   -1 GPU=   -1 NThAct=    1.
 PrSmSu:  NxtVal=             87.
 Electronic moments (au):
        -96.00000000         -0.20379411         -0.82336129          0.77322947
      -1591.20999033       -598.90337221       -407.46456864         -7.83722814
          1.47950844         -0.42558537        960.32791268       -153.51522885
       -128.25168125        156.73374784       -706.21659140       -567.62189126
       -525.51717447        -54.84228721       -120.75471412        181.51163187
     -43966.27608737      -8285.56070927      -5041.88165351       7712.25583347
       -179.39038845        227.30112621       -136.03748230       -929.35378563
        100.11735896      -8545.89474974      -6361.28480687      -1662.81003351
       -568.64606844        995.10097741       -633.50535897
 Electronic spatial extent (au):  <R**2>=           2597.5779
 DipInt: DoE/N= F T RetVal/Mat= T F Init=T NMatP=  1 IDeriv=0 Min/MaxMlt=  0  4
 Nuclear    moments (au):
         96.00000000         -0.00000000         -0.00000000         -0.00000000
       1542.55025107        533.64641914        353.43779512          0.00000000
          0.00000000          0.00000000       -945.57830793        151.70373909
        131.07073131       -166.65631576        711.04089846        555.63306815
        532.47250630         55.26313693        139.69597927       -174.50160187
      38248.04854692       6032.77966875       3689.85020859      -7843.02598711
        212.73904688       -365.26563235        105.60632685        955.79057623
        -96.04312446       7246.35704734       5259.89175232       1057.68950800
        566.39124919      -1002.21612025        613.13416126
 Total      moments (au):
          0.00000000         -0.20379411         -0.82336129          0.77322947
        -48.65973926        -65.25695307        -54.02677351         -7.83722814
          1.47950844         -0.42558537         14.74960476         -1.81148976
          2.81905006         -9.92256792          4.82430706        -11.98882312
          6.95533183          0.42084972         18.94126515          7.01003000
      -5718.22754045      -2252.78104053      -1352.03144492       -130.77015364
         33.34865843       -137.96450614        -30.43115545         26.43679060
          4.07423450      -1299.53770240      -1101.39305455       -605.12052551
         -2.25481925         -7.11514284        -20.37119772
 Traceless Quadrup. (au):
          7.32141602         -9.27579779          1.95438177         -7.83722814
          1.47950844         -0.42558537
 Charge=              0.0000 electrons
 Dipole moment (field-independent basis, Debye):
    X=             -0.5180    Y=             -2.0928    Z=              1.9654  Tot=              2.9173
 Quadrupole moment (field-independent basis, Debye-Ang):
   XX=            -65.4490   YY=            -87.7728   ZZ=            -72.6679
   XY=            -10.5413   XZ=              1.9900   YZ=             -0.5724
 Traceless Quadrupole moment (field-independent basis, Debye-Ang):
   XX=              9.8476   YY=            -12.4763   ZZ=              2.6287
   XY=            -10.5413   XZ=              1.9900   YZ=             -0.5724
 Octapole moment (field-independent basis, Debye-Ang**2):
  XXX=             10.4982  YYY=             -1.2893  ZZZ=              2.0065  XYY=             -7.0625
  XXY=              3.4338  XXZ=             -8.5332  XZZ=              4.9505  YZZ=              0.2995
  YYZ=             13.4817  XYZ=              4.9895
 Hexadecapole moment (field-independent basis, Debye-Ang**3):
 XXXX=          -2153.7587 YYYY=           -848.5054 ZZZZ=           -509.2399 XXXY=            -49.2543
 XXXZ=             12.5607 YYYX=            -51.9640 YYYZ=            -11.4618 ZZZX=              9.9574
 ZZZY=              1.5346 XXYY=           -489.4682 XXZZ=           -414.8374 YYZZ=           -227.9174
 XXYZ=             -0.8493 YYXZ=             -2.6799 ZZXY=             -7.6728
 N-N= 7.823585841543D+02 E-N=-2.988628231249D+03  KE= 6.082478652688D+02
 Entering OneElI...
 OneElI was handed 25769510018 working-precision words.
 Calculate electrostatic properties
    NBasis =   370  MinDer = 0  MaxDer = 0
    NGrid  =    25  NMatD  =   1
 Requested accuracy = 0.1000D-12
 ShPair: Thresh= 1.00D-13 NBox=     0 BxSize= 0.00D+00 RnKept= 1.54D+01
         NSMCal=                 9591 NSMKep=                8089
 PrmmSu-InSpLW:  IPartL=    0 NPrtUS=   48 NPrtUL=    1 DoSpLW=F IThBeg=    0 IThEnd=   47 NThAct=   48.
 PrsmSu:  NPrtUS=  48 ThrOK=T IAlg=1 NPAlg=1 LenDen=           0 ISkipM=0 DoSpLW=F IThBeg=    0 IThEnd=   47.
 Prism:   IPart=     0 DynPar=F LinDyn=F Incr=          42.
 PRISM was handed   536694607 working-precision words and  8089 shell-pairs
 PRISM was handed   536694607 working-precision words and  8089 shell-pairs
 PRISM was handed   536694607 working-precision words and  8089 shell-pairs
 PRISM was handed   536694607 working-precision words and  8089 shell-pairs
 PRISM was handed   536694607 working-precision words and  8089 shell-pairs
 PRISM was handed   536694607 working-precision words and  8089 shell-pairs
 PRISM was handed   536694607 working-precision words and  8089 shell-pairs
 PRISM was handed   536694607 working-precision words and  8089 shell-pairs
 PRISM was handed   536694607 working-precision words and  8089 shell-pairs
 PRISM was handed   536694607 working-precision words and  8089 shell-pairs
 PRISM was handed   536694607 working-precision words and  8089 shell-pairs
 PRISM was handed   536694607 working-precision words and  8089 shell-pairs
 PRISM was handed   536694607 working-precision words and  8089 shell-pairs
 PRISM was handed   536694607 working-precision words and  8089 shell-pairs
 PRISM was handed   536694607 working-precision words and  8089 shell-pairs
 PRISM was handed   536694607 working-precision words and  8089 shell-pairs
 PRISM was handed   536694607 working-precision words and  8089 shell-pairs
 PRISM was handed   536694607 working-precision words and  8089 shell-pairs
 PRISM was handed   536694607 working-precision words and  8089 shell-pairs
 PRISM was handed   536694607 working-precision words and  8089 shell-pairs
 PRISM was handed   536694607 working-precision words and  8089 shell-pairs
 PRISM was handed   536694607 working-precision words and  8089 shell-pairs
 PRISM was handed   536694607 working-precision words and  8089 shell-pairs
 PRISM was handed   536694607 working-precision words and  8089 shell-pairs
 PRISM was handed   536694607 working-precision words and  8089 shell-pairs
 PRISM was handed   536694607 working-precision words and  8089 shell-pairs
 PRISM was handed   536694607 working-precision words and  8089 shell-pairs
 PRISM was handed   536694607 working-precision words and  8089 shell-pairs
 PRISM was handed   536694607 working-precision words and  8089 shell-pairs
 PRISM was handed   536694607 working-precision words and  8089 shell-pairs
 PRISM was handed   536694607 working-precision words and  8089 shell-pairs
 PRISM was handed   536694607 working-precision words and  8089 shell-pairs
 PRISM was handed   536694607 working-precision words and  8089 shell-pairs
 PRISM was handed   536694607 working-precision words and  8089 shell-pairs
 PRISM was handed   536694607 working-precision words and  8089 shell-pairs
 PRISM was handed   536694607 working-precision words and  8089 shell-pairs
 PRISM was handed   536694607 working-precision words and  8089 shell-pairs
 PRISM was handed   536694607 working-precision words and  8089 shell-pairs
 PRISM was handed   536694607 working-precision words and  8089 shell-pairs
 PRISM was handed   536694607 working-precision words and  8089 shell-pairs
 PRISM was handed   536694607 working-precision words and  8089 shell-pairs
 PRISM was handed   536694607 working-precision words and  8089 shell-pairs
 PRISM was handed   536694607 working-precision words and  8089 shell-pairs
 PRISM was handed   536694607 working-precision words and  8089 shell-pairs
 PRISM was handed   536694607 working-precision words and  8089 shell-pairs
 PRISM was handed   536694607 working-precision words and  8089 shell-pairs
 PRISM was handed   536694607 working-precision words and  8089 shell-pairs
 PRISM was handed   536694607 working-precision words and  8089 shell-pairs
 IPart=  0 NShTot=        5150 NBatch=         206 AvBLen=        25.0
 PrsmSu-ThDecC:  IPartSL=    0    0 NPrtUSL=   48    1 IThBeg=    0 IThEnd=   47 CPU=   -1 GPU=   -1 NThAct=   48.
 IPart= 42 NShTot=        3850 NBatch=         154 AvBLen=        25.0
 PrsmSu-ThDecC:  IPartSL=   42    0 NPrtUSL=   48    1 IThBeg=    0 IThEnd=   47 CPU=   -1 GPU=   -1 NThAct=   47.
 IPart= 46 NShTot=        3800 NBatch=         152 AvBLen=        25.0
 PrsmSu-ThDecC:  IPartSL=   46    0 NPrtUSL=   48    1 IThBeg=    0 IThEnd=   47 CPU=   -1 GPU=   -1 NThAct=   46.
 IPart= 31 NShTot=        4000 NBatch=         160 AvBLen=        25.0
 PrsmSu-ThDecC:  IPartSL=   31    0 NPrtUSL=   48    1 IThBeg=    0 IThEnd=   47 CPU=   -1 GPU=   -1 NThAct=   45.
 IPart= 43 NShTot=        3850 NBatch=         154 AvBLen=        25.0
 PrsmSu-ThDecC:  IPartSL=   43    0 NPrtUSL=   48    1 IThBeg=    0 IThEnd=   47 CPU=   -1 GPU=   -1 NThAct=   44.
 IPart= 41 NShTot=        3850 NBatch=         154 AvBLen=        25.0
 PrsmSu-ThDecC:  IPartSL=   41    0 NPrtUSL=   48    1 IThBeg=    0 IThEnd=   47 CPU=   -1 GPU=   -1 NThAct=   43.
 IPart= 36 NShTot=        3900 NBatch=         156 AvBLen=        25.0
 PrsmSu-ThDecC:  IPartSL=   36    0 NPrtUSL=   48    1 IThBeg=    0 IThEnd=   47 CPU=   -1 GPU=   -1 NThAct=   42.
 IPart=  6 NShTot=        4750 NBatch=         190 AvBLen=        25.0
 PrsmSu-ThDecC:  IPartSL=    6    0 NPrtUSL=   48    1 IThBeg=    0 IThEnd=   47 CPU=   -1 GPU=   -1 NThAct=   41.
 IPart= 44 NShTot=        3850 NBatch=         154 AvBLen=        25.0
 PrsmSu-ThDecC:  IPartSL=   44    0 NPrtUSL=   48    1 IThBeg=    0 IThEnd=   47 CPU=   -1 GPU=   -1 NThAct=   40.
 IPart= 10 NShTot=        4475 NBatch=         179 AvBLen=        25.0
 PrsmSu-ThDecC:  IPartSL=   10    0 NPrtUSL=   48    1 IThBeg=    0 IThEnd=   47 CPU=   -1 GPU=   -1 NThAct=   39.
 IPart= 20 NShTot=        4150 NBatch=         166 AvBLen=        25.0
 PrsmSu-ThDecC:  IPartSL=   20    0 NPrtUSL=   48    1 IThBeg=    0 IThEnd=   47 CPU=   -1 GPU=   -1 NThAct=   38.
 IPart= 17 NShTot=        4175 NBatch=         167 AvBLen=        25.0
 PrsmSu-ThDecC:  IPartSL=   17    0 NPrtUSL=   48    1 IThBeg=    0 IThEnd=   47 CPU=   -1 GPU=   -1 NThAct=   37.
 IPart= 25 NShTot=        4125 NBatch=         165 AvBLen=        25.0
 PrsmSu-ThDecC:  IPartSL=   25    0 NPrtUSL=   48    1 IThBeg=    0 IThEnd=   47 CPU=   -1 GPU=   -1 NThAct=   36.
 IPart= 45 NShTot=        3800 NBatch=         152 AvBLen=        25.0
 PrsmSu-ThDecC:  IPartSL=   45    0 NPrtUSL=   48    1 IThBeg=    0 IThEnd=   47 CPU=   -1 GPU=   -1 NThAct=   35.
 IPart=  4 NShTot=        4850 NBatch=         194 AvBLen=        25.0
 PrsmSu-ThDecC:  IPartSL=    4    0 NPrtUSL=   48    1 IThBeg=    0 IThEnd=   47 CPU=   -1 GPU=   -1 NThAct=   34.
 IPart= 26 NShTot=        4100 NBatch=         164 AvBLen=        25.0
 PrsmSu-ThDecC:  IPartSL=   26    0 NPrtUSL=   48    1 IThBeg=    0 IThEnd=   47 CPU=   -1 GPU=   -1 NThAct=   33.
 IPart= 23 NShTot=        4125 NBatch=         165 AvBLen=        25.0
 PrsmSu-ThDecC:  IPartSL=   23    0 NPrtUSL=   48    1 IThBeg=    0 IThEnd=   47 CPU=   -1 GPU=   -1 NThAct=   32.
 IPart= 34 NShTot=        3925 NBatch=         157 AvBLen=        25.0
 PrsmSu-ThDecC:  IPartSL=   34    0 NPrtUSL=   48    1 IThBeg=    0 IThEnd=   47 CPU=   -1 GPU=   -1 NThAct=   31.
 IPart= 13 NShTot=        4325 NBatch=         173 AvBLen=        25.0
 IPart= 29 NShTot=        4025 NBatch=         161 AvBLen=        25.0
 PrsmSu-ThDecC:  IPartSL=   13    0 NPrtUSL=   48    1 IThBeg=    0 IThEnd=   47 CPU=   -1 GPU=   -1 NThAct=   30.
 PrsmSu-ThDecC:  IPartSL=   29    0 NPrtUSL=   48    1 IThBeg=    0 IThEnd=   47 CPU=   -1 GPU=   -1 NThAct=   29.
 IPart= 47 NShTot=        3800 NBatch=         152 AvBLen=        25.0
 PrsmSu-ThDecC:  IPartSL=   47    0 NPrtUSL=   48    1 IThBeg=    0 IThEnd=   47 CPU=   -1 GPU=   -1 NThAct=   28.
 IPart=  1 NShTot=        5075 NBatch=         203 AvBLen=        25.0
 PrsmSu-ThDecC:  IPartSL=    1    0 NPrtUSL=   48    1 IThBeg=    0 IThEnd=   47 CPU=   -1 GPU=   -1 NThAct=   27.
 IPart= 39 NShTot=        3875 NBatch=         155 AvBLen=        25.0
 PrsmSu-ThDecC:  IPartSL=   39    0 NPrtUSL=   48    1 IThBeg=    0 IThEnd=   47 CPU=   -1 GPU=   -1 NThAct=   26.
 IPart= 38 NShTot=        3875 NBatch=         155 AvBLen=        25.0
 PrsmSu-ThDecC:  IPartSL=   38    0 NPrtUSL=   48    1 IThBeg=    0 IThEnd=   47 CPU=   -1 GPU=   -1 NThAct=   25.
 IPart= 30 NShTot=        4025 NBatch=         161 AvBLen=        25.0
 PrsmSu-ThDecC:  IPartSL=   30    0 NPrtUSL=   48    1 IThBeg=    0 IThEnd=   47 CPU=   -1 GPU=   -1 NThAct=   24.
 IPart= 16 NShTot=        4250 NBatch=         170 AvBLen=        25.0
 PrsmSu-ThDecC:  IPartSL=   16    0 NPrtUSL=   48    1 IThBeg=    0 IThEnd=   47 CPU=   -1 GPU=   -1 NThAct=   23.
 IPart= 11 NShTot=        4425 NBatch=         177 AvBLen=        25.0
 PrsmSu-ThDecC:  IPartSL=   11    0 NPrtUSL=   48    1 IThBeg=    0 IThEnd=   47 CPU=   -1 GPU=   -1 NThAct=   22.
 IPart=  3 NShTot=        4925 NBatch=         197 AvBLen=        25.0
 PrsmSu-ThDecC:  IPartSL=    3    0 NPrtUSL=   48    1 IThBeg=    0 IThEnd=   47 CPU=   -1 GPU=   -1 NThAct=   21.
 IPart=  9 NShTot=        4475 NBatch=         179 AvBLen=        25.0
 PrsmSu-ThDecC:  IPartSL=    9    0 NPrtUSL=   48    1 IThBeg=    0 IThEnd=   47 CPU=   -1 GPU=   -1 NThAct=   20.
 IPart= 35 NShTot=        3925 NBatch=         157 AvBLen=        25.0
 PrsmSu-ThDecC:  IPartSL=   35    0 NPrtUSL=   48    1 IThBeg=    0 IThEnd=   47 CPU=   -1 GPU=   -1 NThAct=   19.
 IPart= 37 NShTot=        3900 NBatch=         156 AvBLen=        25.0
 PrsmSu-ThDecC:  IPartSL=   37    0 NPrtUSL=   48    1 IThBeg=    0 IThEnd=   47 CPU=   -1 GPU=   -1 NThAct=   18.
 IPart= 33 NShTot=        3925 NBatch=         157 AvBLen=        25.0
 PrsmSu-ThDecC:  IPartSL=   33    0 NPrtUSL=   48    1 IThBeg=    0 IThEnd=   47 CPU=   -1 GPU=   -1 NThAct=   17.
 IPart= 15 NShTot=        4275 NBatch=         171 AvBLen=        25.0
 PrsmSu-ThDecC:  IPartSL=   15    0 NPrtUSL=   48    1 IThBeg=    0 IThEnd=   47 CPU=   -1 GPU=   -1 NThAct=   16.
 IPart= 14 NShTot=        4325 NBatch=         173 AvBLen=        25.0
 IPart= 32 NShTot=        3950 NBatch=         158 AvBLen=        25.0
 PrsmSu-ThDecC:  IPartSL=   14    0 NPrtUSL=   48    1 IThBeg=    0 IThEnd=   47 CPU=   -1 GPU=   -1 NThAct=   15.
 PrsmSu-ThDecC:  IPartSL=   32    0 NPrtUSL=   48    1 IThBeg=    0 IThEnd=   47 CPU=   -1 GPU=   -1 NThAct=   14.
 IPart=  7 NShTot=        4650 NBatch=         186 AvBLen=        25.0
 PrsmSu-ThDecC:  IPartSL=    7    0 NPrtUSL=   48    1 IThBeg=    0 IThEnd=   47 CPU=   -1 GPU=   -1 NThAct=   13.
 IPart=  2 NShTot=        4950 NBatch=         198 AvBLen=        25.0
 PrsmSu-ThDecC:  IPartSL=    2    0 NPrtUSL=   48    1 IThBeg=    0 IThEnd=   47 CPU=   -1 GPU=   -1 NThAct=   12.
 IPart=  8 NShTot=        4600 NBatch=         184 AvBLen=        25.0
 PrsmSu-ThDecC:  IPartSL=    8    0 NPrtUSL=   48    1 IThBeg=    0 IThEnd=   47 CPU=   -1 GPU=   -1 NThAct=   11.
 IPart= 27 NShTot=        4050 NBatch=         162 AvBLen=        25.0
 PrsmSu-ThDecC:  IPartSL=   27    0 NPrtUSL=   48    1 IThBeg=    0 IThEnd=   47 CPU=   -1 GPU=   -1 NThAct=   10.
 IPart= 12 NShTot=        4400 NBatch=         176 AvBLen=        25.0
 PrsmSu-ThDecC:  IPartSL=   12    0 NPrtUSL=   48    1 IThBeg=    0 IThEnd=   47 CPU=   -1 GPU=   -1 NThAct=    9.
 IPart= 28 NShTot=        4025 NBatch=         161 AvBLen=        25.0
 PrsmSu-ThDecC:  IPartSL=   28    0 NPrtUSL=   48    1 IThBeg=    0 IThEnd=   47 CPU=   -1 GPU=   -1 NThAct=    8.
 IPart= 24 NShTot=        4125 NBatch=         165 AvBLen=        25.0
 PrsmSu-ThDecC:  IPartSL=   24    0 NPrtUSL=   48    1 IThBeg=    0 IThEnd=   47 CPU=   -1 GPU=   -1 NThAct=    7.
 IPart= 22 NShTot=        4150 NBatch=         166 AvBLen=        25.0
 PrsmSu-ThDecC:  IPartSL=   22    0 NPrtUSL=   48    1 IThBeg=    0 IThEnd=   47 CPU=   -1 GPU=   -1 NThAct=    6.
 IPart= 40 NShTot=        3850 NBatch=         154 AvBLen=        25.0
 PrsmSu-ThDecC:  IPartSL=   40    0 NPrtUSL=   48    1 IThBeg=    0 IThEnd=   47 CPU=   -1 GPU=   -1 NThAct=    5.
 IPart= 18 NShTot=        4175 NBatch=         167 AvBLen=        25.0
 PrsmSu-ThDecC:  IPartSL=   18    0 NPrtUSL=   48    1 IThBeg=    0 IThEnd=   47 CPU=   -1 GPU=   -1 NThAct=    4.
 IPart= 21 NShTot=        4150 NBatch=         166 AvBLen=        25.0
 PrsmSu-ThDecC:  IPartSL=   21    0 NPrtUSL=   48    1 IThBeg=    0 IThEnd=   47 CPU=   -1 GPU=   -1 NThAct=    3.
 IPart= 19 NShTot=        4150 NBatch=         166 AvBLen=        25.0
 PrsmSu-ThDecC:  IPartSL=   19    0 NPrtUSL=   48    1 IThBeg=    0 IThEnd=   47 CPU=   -1 GPU=   -1 NThAct=    2.
 IPart=  5 NShTot=        4850 NBatch=         194 AvBLen=        25.0
 PrsmSu-ThDecC:  IPartSL=    5    0 NPrtUSL=   48    1 IThBeg=    0 IThEnd=   47 CPU=   -1 GPU=   -1 NThAct=    1.
 PrSmSu:  NxtVal=           2017.
 --------------------------------------------------------
       Center         ----      EFG at Nuclei      ----
                      3XX-RR        3YY-RR        3ZZ-RR
 --------------------------------------------------------
     1   Atom        0.013567     -0.019748      0.006181
     2   Atom       -0.209656      0.057881      0.151775
     3   Atom       -0.329126      0.150438      0.178688
     4   Atom       -0.231424      0.272038     -0.040614
     5   Atom       -0.825479     -0.667068      1.492546
     6   Atom        0.959705     -0.242001     -0.717704
     7   Atom       -0.069886      0.125966     -0.056080
     8   Atom       -0.043159      0.000699      0.042460
     9   Atom        0.097472     -0.009652     -0.087820
    10   Atom        0.104169     -0.063847     -0.040322
    11   Atom        0.145914     -0.231558      0.085644
    12   Atom        0.158943     -0.365271      0.206328
    13   Atom       -0.057835      0.038302      0.019533
    14   Atom       -0.094915     -0.014431      0.109347
    15   Atom       -0.027794      0.146000     -0.118206
    16   Atom        0.064943      0.012113     -0.077056
    17   Atom        0.052447      0.033368     -0.085815
    18   Atom        0.344674     -0.256347     -0.088327
    19   Atom       -0.111351      0.064719      0.046632
    20   Atom       -0.015619     -0.139694      0.155312
    21   Atom       -0.037397      0.152280     -0.114882
    22   Atom       -0.039193      0.153655     -0.114463
    23   Atom        0.052387      0.163734     -0.216121
    24   Atom        0.026716     -0.072783      0.046067
    25   Atom        0.157066      0.058764     -0.215831
 --------------------------------------------------------
                        XY            XZ            YZ
 --------------------------------------------------------
     1   Atom        0.024987      0.049909      0.002382
     2   Atom       -0.132699      0.047735      0.064868
     3   Atom       -0.189958      0.055396      0.049040
     4   Atom       -0.279878      0.072204     -0.089598
     5   Atom       -0.164141      0.443867     -0.535529
     6   Atom        0.643380      0.121177     -0.825484
     7   Atom       -0.068000      0.218763      0.076884
     8   Atom       -0.168210     -0.144172     -0.120773
     9   Atom        0.103943     -0.117992      0.193252
    10   Atom        0.122949     -0.114290      0.208701
    11   Atom        0.084654      0.033728     -0.167621
    12   Atom        0.295383      0.040598     -0.112218
    13   Atom       -0.166047      0.158766      0.165066
    14   Atom        0.020429      0.140051      0.162179
    15   Atom        0.314937      0.230078      0.294791
    16   Atom       -0.068442     -0.163996      0.102525
    17   Atom       -0.133779     -0.008036     -0.052056
    18   Atom       -0.474446     -0.536306      0.219495
    19   Atom       -0.074201      0.095229     -0.146223
    20   Atom        0.233943     -0.041787      0.039436
    21   Atom       -0.026570     -0.243174     -0.039454
    22   Atom        0.021992     -0.240975      0.002998
    23   Atom        0.025159      0.199862     -0.012490
    24   Atom        0.192599     -0.115618      0.164070
    25   Atom        0.004397      0.025266      0.200907
 --------------------------------------------------------


 ---------------------------------------------------------------------------------
              Nuclear Quadrupole Coupling Constant in Principal Axis System
 ---------------------------------------------------------------------------------

       Atom             a.u.   MegaHertz   Gauss  10(-4) cm-1        Axes

              Baa    -0.3174     1.524     0.544     0.509 -0.3463 -0.3246  0.8802
    15 N(14)  Bbb    -0.2673     1.284     0.458     0.428  0.7694 -0.6351  0.0685
              Bcc     0.5847    -2.808    -1.002    -0.937  0.5368  0.7009  0.4696
 
              Baa    -0.5437     2.611     0.932     0.871  0.5998  0.7133  0.3626
    18 N(14)  Bbb    -0.3879     1.863     0.665     0.621  0.2064 -0.5757  0.7912
              Bcc     0.9317    -4.474    -1.597    -1.493  0.7731 -0.3997 -0.4925
 

 ---------------------------------------------------------------------------------

 No NMR shielding tensors so no spin-rotation constants.
 Leave Link  601 at Thu Apr 21 10:31:27 2022, MaxMem= 25769803776 cpu:              17.5 elap:               0.5
 Calling FoFJK, ICntrl=      2127 FMM=F ISym2X=0 I1Cent= 0 IOpClX= 0 NMat=1 NMatS=1 NMatT=0.
 ***** Axes restored to original set *****
 -------------------------------------------------------------------
 Center     Atomic                   Forces (Hartrees/Bohr)
 Number     Number              X              Y              Z
 -------------------------------------------------------------------
      1        6           0.035168171   -0.011238671   -0.012754961
      2        6           0.005656706    0.069080863   -0.036593832
      3        6          -0.008172779   -0.044475720    0.013007265
      4        6          -0.059294116   -0.004850031    0.064615600
      5        8           0.017543082   -0.007352149   -0.014020746
      6        8          -0.008577545    0.022756320   -0.004120890
      7        1          -0.001177721    0.000623927   -0.009979865
      8        1           0.000788045   -0.000635110    0.008838194
      9        1          -0.003502612   -0.005721699   -0.007753468
     10        1           0.004307657   -0.004369572   -0.002054196
     11        1           0.001967106    0.000440007    0.009080034
     12        1           0.016096795   -0.014174789   -0.006394956
     13        6           0.006814605   -0.007878313    0.005392235
     14        6          -0.065398122    0.042533067    0.062509360
     15        7          -0.014169769   -0.012578407   -0.015044308
     16        6           0.024336775    0.003412649   -0.038654581
     17        6           0.017489687   -0.008608413    0.002025840
     18        7          -0.007267206    0.019856760   -0.048821563
     19        6           0.027775079   -0.034662506    0.012843671
     20        1           0.004751772   -0.001497430    0.006295195
     21        1           0.004698339   -0.002338332   -0.007888059
     22        1           0.003017082   -0.004358372    0.002235399
     23        1          -0.000719305   -0.004670848    0.002404937
     24        1           0.000679359    0.002986611    0.002412228
     25        1          -0.002811086    0.007720159    0.012421467
 -------------------------------------------------------------------
 Cartesian Forces:  Max     0.069080863 RMS     0.022597599

 GradGradGradGradGradGradGradGradGradGradGradGradGradGradGradGradGradGrad
 Berny optimization.
 FormGI is forming the generalized inverse of G from B-inverse, IUseBI=4.
 Internal  Forces:  Max     0.086646497 RMS     0.014646656
 Search for a local minimum.
 Step number   1 out of a maximum of  122
 All quantities printed in internal units (Hartrees-Bohrs-Radians)
 Mixed Optimization -- RFO/linear search
 Second derivative matrix not updated -- first step.
 ITU=  0
     Eigenvalues ---    0.00230   0.00235   0.01432   0.01765   0.01809
     Eigenvalues ---    0.01845   0.01860   0.01891   0.02066   0.02212
     Eigenvalues ---    0.02247   0.02279   0.02394   0.02544   0.02600
     Eigenvalues ---    0.02672   0.02718   0.02768   0.02770   0.02778
     Eigenvalues ---    0.04509   0.06107   0.07091   0.09204   0.11859
     Eigenvalues ---    0.14133   0.15617   0.15887   0.15929   0.15999
     Eigenvalues ---    0.16000   0.16000   0.16000   0.16000   0.16000
     Eigenvalues ---    0.16000   0.20605   0.22023   0.22736   0.23217
     Eigenvalues ---    0.24820   0.24872   0.24997   0.25000   0.25000
     Eigenvalues ---    0.34813   0.34829   0.34834   0.35890   0.35925
     Eigenvalues ---    0.35971   0.35983   0.36012   0.36014   0.36020
     Eigenvalues ---    0.36100   0.38287   0.42005   0.42698   0.45161
     Eigenvalues ---    0.47200   0.48209   0.51380   0.53590   0.55314
     Eigenvalues ---    0.58700   0.59189   0.65804   0.92485
 RFO step:  Lambda=-6.07580581D-02 EMin= 2.30000000D-03
 Linear search not attempted -- first point.
 Maximum step size (   0.300) exceeded in Quadratic search.
    -- Step size scaled by   0.891
 Iteration  1 RMS(Cart)=  0.11953098 RMS(Int)=  0.00339574
 Iteration  2 RMS(Cart)=  0.00653463 RMS(Int)=  0.00101662
 Iteration  3 RMS(Cart)=  0.00002084 RMS(Int)=  0.00101658
 Iteration  4 RMS(Cart)=  0.00000002 RMS(Int)=  0.00101658
 Variable       Old X    -DE/DX   Delta X   Delta X   Delta X     New X
                                 (Linear)    (Quad)   (Total)
    R1        2.73949   0.04035   0.00000   0.08102   0.08102   2.82051
    R2        2.05945   0.00392   0.00000   0.00854   0.00854   2.06799
    R3        2.05980   0.00435   0.00000   0.00947   0.00947   2.06927
    R4        2.05954   0.00077   0.00000   0.00168   0.00168   2.06122
    R5        2.62801  -0.05187   0.00000  -0.08672  -0.08672   2.54128
    R6        2.68045   0.05036   0.00000   0.09196   0.09196   2.77241
    R7        2.04059   0.00225   0.00000   0.00475   0.00475   2.04534
    R8        2.04127   0.00169   0.00000   0.00358   0.00358   2.04485
    R9        2.31808  -0.02293   0.00000  -0.02073  -0.02073   2.29736
   R10        2.61717  -0.01040   0.00000  -0.01707  -0.01707   2.60011
   R11        1.78684   0.02083   0.00000   0.02864   0.02864   1.81548
   R12        4.96624  -0.00199   0.00000  -0.02266  -0.02266   4.94358
   R13        2.54854  -0.01951   0.00000  -0.02831  -0.02831   2.52023
   R14        2.04199   0.00214   0.00000   0.00453   0.00453   2.04652
   R15        2.03926   0.00366   0.00000   0.00773   0.00773   2.04698
   R16        2.51588   0.08665   0.00000   0.11825   0.11825   2.63413
   R17        2.04108   0.00456   0.00000   0.00966   0.00966   2.05074
   R18        2.53748   0.04074   0.00000   0.06021   0.06083   2.59831
   R19        2.56658   0.01567   0.00000   0.02781   0.02785   2.59443
   R20        2.60832   0.00017   0.00000  -0.00349  -0.00322   2.60511
   R21        2.04254  -0.00416   0.00000  -0.00883  -0.00883   2.03370
   R22        2.63624  -0.00588   0.00000  -0.01497  -0.01543   2.62081
   R23        2.04063  -0.00109   0.00000  -0.00230  -0.00230   2.03832
   R24        2.44086   0.03452   0.00000   0.04179   0.04130   2.48216
   R25        2.04051  -0.00042   0.00000  -0.00089  -0.00089   2.03962
    A1        1.94151   0.00277   0.00000   0.00803   0.00815   1.94965
    A2        1.99665  -0.01198   0.00000  -0.04324  -0.04297   1.95369
    A3        1.90712   0.00585   0.00000   0.02687   0.02721   1.93433
    A4        1.84097   0.00536   0.00000   0.02123   0.02124   1.86221
    A5        1.96367  -0.00853   0.00000  -0.04531  -0.04539   1.91828
    A6        1.81077   0.00598   0.00000   0.03029   0.03061   1.84138
    A7        2.12407  -0.00122   0.00000  -0.00256  -0.00271   2.12136
    A8        2.04750   0.01956   0.00000   0.05720   0.05711   2.10461
    A9        2.10405  -0.01799   0.00000  -0.05089  -0.05112   2.05293
   A10        2.14350  -0.00550   0.00000  -0.02040  -0.02103   2.12247
   A11        2.11361  -0.00068   0.00000  -0.00095  -0.00158   2.11203
   A12        2.01700   0.00693   0.00000   0.02979   0.02916   2.04616
   A13        2.18718  -0.00299   0.00000  -0.00858  -0.00858   2.17860
   A14        2.07773  -0.00710   0.00000  -0.02035  -0.02035   2.05739
   A15        2.01803   0.01010   0.00000   0.02895   0.02895   2.04699
   A16        1.87632   0.01300   0.00000   0.05246   0.05246   1.92878
   A17        2.29034  -0.00614   0.00000  -0.01759  -0.01759   2.27275
   A18        2.12441  -0.00253   0.00000  -0.00991  -0.01002   2.11439
   A19        2.19064  -0.00758   0.00000  -0.03028  -0.03040   2.16024
   A20        1.96665   0.01025   0.00000   0.04165   0.04153   2.00819
   A21        2.16190   0.00471   0.00000   0.01577   0.01544   2.17735
   A22        2.05787   0.00146   0.00000   0.00919   0.00888   2.06676
   A23        2.05553  -0.00561   0.00000  -0.01948  -0.01982   2.03571
   A24        2.20001   0.00871   0.00000   0.02265   0.02266   2.22267
   A25        2.12019   0.01715   0.00000   0.05005   0.05020   2.17038
   A26        1.91148  -0.02367   0.00000  -0.05275  -0.05499   1.85650
   A27        1.80752   0.01683   0.00000   0.05289   0.05173   1.85924
   A28        2.16570  -0.01127   0.00000  -0.03797  -0.03745   2.12825
   A29        2.30992  -0.00558   0.00000  -0.01509  -0.01457   2.29535
   A30        1.91502   0.00070   0.00000  -0.01000  -0.01251   1.90250
   A31        2.27396  -0.00331   0.00000  -0.00593  -0.00528   2.26868
   A32        2.08929   0.00307   0.00000   0.02055   0.02130   2.11059
   A33        1.63265   0.00147   0.00000   0.02855   0.02971   1.66236
   A34        2.28689   0.00231   0.00000   0.01718   0.01602   2.30290
   A35        1.82909   0.00419   0.00000   0.02267   0.01959   1.84869
   A36        1.91381   0.00691   0.00000   0.03715   0.03304   1.94685
   A37        2.25392  -0.01765   0.00000  -0.06925  -0.07035   2.18357
   A38        2.09788   0.01276   0.00000   0.05242   0.05176   2.14964
    D1       -2.09601   0.00224   0.00000   0.01294   0.01253  -2.08349
    D2        0.91436   0.00392   0.00000   0.04162   0.04206   0.95642
    D3        2.10342   0.00162   0.00000   0.00966   0.00912   2.11255
    D4       -1.16939   0.00329   0.00000   0.03834   0.03866  -1.13073
    D5        0.08252  -0.00254   0.00000  -0.02016  -0.02049   0.06202
    D6        3.09289  -0.00087   0.00000   0.00852   0.00904   3.10193
    D7       -0.06303  -0.00061   0.00000   0.00350   0.00355  -0.05947
    D8       -2.20237  -0.00052   0.00000   0.00493   0.00512  -2.19725
    D9        2.01307   0.00408   0.00000   0.03313   0.03289   2.04597
   D10       -0.11106   0.00239   0.00000   0.02045   0.01988  -0.09118
   D11        2.87967   0.00917   0.00000   0.09268   0.09215   2.97183
   D12       -3.11723  -0.00215   0.00000  -0.01727  -0.01674  -3.13397
   D13       -0.12650   0.00462   0.00000   0.05496   0.05553  -0.07097
   D14       -3.06307  -0.00043   0.00000  -0.00450  -0.00440  -3.06748
   D15        0.10308  -0.00063   0.00000  -0.00641  -0.00631   0.09677
   D16       -0.05112   0.00251   0.00000   0.02754   0.02743  -0.02368
   D17        3.11504   0.00230   0.00000   0.02563   0.02553   3.14057
   D18       -0.05365   0.00323   0.00000   0.03655   0.03656  -0.01709
   D19        3.11017   0.00320   0.00000   0.03527   0.03526  -3.13775
   D20       -1.19840  -0.00425   0.00000  -0.03490  -0.03440  -1.23279
   D21        0.77645   0.00405   0.00000   0.03208   0.03158   0.80803
   D22        3.01008   0.00593   0.00000   0.06051   0.06070   3.07078
   D23        0.00631   0.00151   0.00000   0.01440   0.01422   0.02052
   D24       -0.06869   0.00273   0.00000   0.02826   0.02844  -0.04024
   D25       -3.07246  -0.00170   0.00000  -0.01785  -0.01804  -3.09050
   D26        0.88616  -0.00298   0.00000  -0.01526  -0.01433   0.87183
   D27       -1.87980  -0.00609   0.00000  -0.07533  -0.07590  -1.95570
   D28       -2.39308   0.00195   0.00000   0.03289   0.03346  -2.35963
   D29        1.12415  -0.00115   0.00000  -0.02719  -0.02812   1.09603
   D30       -2.94732  -0.00156   0.00000   0.00555   0.00598  -2.94135
   D31        0.18464  -0.00285   0.00000  -0.01007  -0.00925   0.17539
   D32       -0.14411   0.00786   0.00000   0.07652   0.07531  -0.06880
   D33        2.98785   0.00657   0.00000   0.06090   0.06009   3.04794
   D34        3.10756  -0.01009   0.00000  -0.09151  -0.08962   3.01794
   D35       -0.23777   0.00355   0.00000   0.03365   0.03125  -0.20652
   D36        0.28610  -0.01758   0.00000  -0.15368  -0.15092   0.13519
   D37       -3.05923  -0.00394   0.00000  -0.02852  -0.03005  -3.08928
   D38       -0.03130   0.00153   0.00000   0.01746   0.01724  -0.01406
   D39       -3.06377  -0.00382   0.00000  -0.03490  -0.03416  -3.09793
   D40        3.12109   0.00300   0.00000   0.03508   0.03461  -3.12749
   D41        0.08861  -0.00235   0.00000  -0.01727  -0.01678   0.07183
   D42        2.54115  -0.00623   0.00000  -0.06666  -0.06566   2.47550
   D43        0.19967  -0.01082   0.00000  -0.10538  -0.10488   0.09479
   D44       -0.69623  -0.00198   0.00000  -0.02235  -0.02142  -0.71765
   D45       -3.03771  -0.00656   0.00000  -0.06107  -0.06065  -3.09836
   D46       -2.17930   0.00485   0.00000   0.06884   0.07228  -2.10702
   D47        1.14488  -0.00332   0.00000  -0.02697  -0.02933   1.11555
[...]
 **** Fit      -0.034758
 **** Fit      -0.037211
 **** Fit      -0.039029
 **** Fit      -0.039900
 **** Fit      -0.039633
 **** Fit      -0.038209
 **** Fit      -0.035778
 **** Fit      -0.024685
 **** Fit      -0.026773
 **** Fit      -0.028832
 **** Fit      -0.030689
 **** Fit      -0.032126
 **** Fit      -0.032927
 **** Fit      -0.032940
 **** Fit      -0.022483
 **** Fit      -0.024042
 **** Fit      -0.025472
 **** Fit      -0.026621
 **** Fit      -0.027333
 **** Fit      -0.027481
 **** Fit      -0.020161
 **** Fit      -0.021265
 **** Fit      -0.022176
 **** Fit      -0.022776
 **** Fit      -0.047259
 **** Fit      -0.046653
 **** Fit      -0.045074
 **** Fit      -0.048434
 **** Fit      -0.051143
 **** Fit      -0.052952
 **** Fit      -0.053559
 **** Fit      -0.052806
 **** Fit      -0.050746
 **** Fit      -0.047629
 **** Fit      -0.043811
 **** Fit      -0.039654
 **** Fit      -0.049717
 **** Fit      -0.053951
 **** Fit      -0.057593
 **** Fit      -0.060125
 **** Fit      -0.061063
 **** Fit      -0.060140
 **** Fit      -0.057437
 **** Fit      -0.053351
 **** Fit      -0.048434
 **** Fit      -0.043212
 **** Fit      -0.038080
 **** Fit      -0.049003
 **** Fit      -0.054480
 **** Fit      -0.059939
 **** Fit      -0.064812
 **** Fit      -0.068340
 **** Fit      -0.069765
 **** Fit      -0.068659
 **** Fit      -0.065143
 **** Fit      -0.059832
 **** Fit      -0.053544
 **** Fit      -0.047020
 **** Fit      -0.040778
 **** Fit      -0.035096
 **** Fit      -0.046404
 **** Fit      -0.052495
 **** Fit      -0.059159
 **** Fit      -0.066021
 **** Fit      -0.072344
 **** Fit      -0.077051
 **** Fit      -0.079047
 **** Fit      -0.077739
 **** Fit      -0.073342
 **** Fit      -0.066708
 **** Fit      -0.058923
 **** Fit      -0.050956
 **** Fit      -0.043475
 **** Fit      -0.036822
 **** Fit      -0.031090
 **** Fit      -0.048490
 **** Fit      -0.055453
 **** Fit      -0.063262
 **** Fit      -0.071490
 **** Fit      -0.079183
 **** Fit      -0.084902
 **** Fit      -0.073082
 **** Fit      -0.064070
 **** Fit      -0.054759
 **** Fit      -0.046040
 **** Fit      -0.038390
 **** Fit      -0.031925
 **** Fit      -0.043344
 **** Fit      -0.049853
 **** Fit      -0.057498
 **** Fit      -0.066202
 **** Fit      -0.075446
 **** Fit      -0.084000
 **** Fit      -0.068371
 **** Fit      -0.058089
 **** Fit      -0.048279
 **** Fit      -0.039697
 **** Fit      -0.032542
 **** Fit      -0.043528
 **** Fit      -0.050300
 **** Fit      -0.058323
 **** Fit      -0.067510
 **** Fit      -0.077228
 **** Fit      -0.060646
 **** Fit      -0.049971
 **** Fit      -0.040612
 **** Fit      -0.032880
 **** Fit      -0.026647
 **** Fit      -0.021659
 **** Fit      -0.017680
 **** Fit      -0.014523
 **** Fit      -0.012039
 **** Fit      -0.010105
 **** Fit      -0.042956
 **** Fit      -0.049734
 **** Fit      -0.057788
 **** Fit      -0.067024
 **** Fit      -0.076768
 **** Fit      -0.062169
 **** Fit      -0.050861
 **** Fit      -0.040977
 **** Fit      -0.032872
 **** Fit      -0.026389
 **** Fit      -0.021240
 **** Fit      -0.017163
 **** Fit      -0.013958
 **** Fit      -0.011468
 **** Fit      -0.009558
 **** Fit      -0.041643
 **** Fit      -0.048178
 **** Fit      -0.055940
 **** Fit      -0.064859
 **** Fit      -0.074369
 **** Fit      -0.062250
 **** Fit      -0.050673
 **** Fit      -0.040646
 **** Fit      -0.032459
 **** Fit      -0.025923
 **** Fit      -0.020739
 **** Fit      -0.016643
 **** Fit      -0.013436
 **** Fit      -0.010962
 **** Fit      -0.009084
 **** Fit      -0.007672
 **** Fit      -0.039671
 **** Fit      -0.045752
 **** Fit      -0.052952
 **** Fit      -0.061243
 **** Fit      -0.070246
 **** Fit      -0.072210
 **** Fit      -0.060438
 **** Fit      -0.049213
 **** Fit      -0.039542
 **** Fit      -0.031620
 **** Fit      -0.025258
 **** Fit      -0.020183
 **** Fit      -0.016156
 **** Fit      -0.012998
 **** Fit      -0.010564
 **** Fit      -0.008721
 **** Fit      -0.007341
 **** Fit      -0.042641
 **** Fit      -0.049073
 **** Fit      -0.056462
 **** Fit      -0.064570
 **** Fit      -0.072773
 **** Fit      -0.077152
 **** Fit      -0.067419
 **** Fit      -0.056704
 **** Fit      -0.046550
 **** Fit      -0.037727
 **** Fit      -0.030392
 **** Fit      -0.024414
 **** Fit      -0.019582
 **** Fit      -0.015712
 **** Fit      -0.012653
 **** Fit      -0.010280
 **** Fit      -0.008474
 **** Fit      -0.007116
 **** Fit      -0.039070
 **** Fit      -0.044608
 **** Fit      -0.050907
 **** Fit      -0.057786
 **** Fit      -0.064780
 **** Fit      -0.071052
 **** Fit      -0.075458
 **** Fit      -0.076833
 **** Fit      -0.074488
 **** Fit      -0.068679
 **** Fit      -0.060570
 **** Fit      -0.051637
 **** Fit      -0.043040
 **** Fit      -0.035387
 **** Fit      -0.028859
 **** Fit      -0.023413
 **** Fit      -0.018931
 **** Fit      -0.015287
 **** Fit      -0.012372
 **** Fit      -0.010083
 **** Fit      -0.008320
 **** Fit      -0.006978
 **** Fit      -0.039883
 **** Fit      -0.045044
 **** Fit      -0.050586
 **** Fit      -0.056132
 **** Fit      -0.061034
 **** Fit      -0.064421
 **** Fit      -0.065442
 **** Fit      -0.063640
 **** Fit      -0.059236
 **** Fit      -0.053043
 **** Fit      -0.046069
 **** Fit      -0.039140
 **** Fit      -0.032749
 **** Fit      -0.022277
 **** Fit      -0.018207
 **** Fit      -0.014839
 **** Fit      -0.012101
 **** Fit      -0.009919
 **** Fit      -0.008209
 **** Fit      -0.039298
 **** Fit      -0.043609
 **** Fit      -0.047827
 **** Fit      -0.051477
 **** Fit      -0.053960
 **** Fit      -0.054722
 **** Fit      -0.053479
 **** Fit      -0.050365
 **** Fit      -0.045871
 **** Fit      -0.040630
 **** Fit      -0.035206
 **** Fit      -0.014320
 **** Fit      -0.011785
 **** Fit      -0.037259
 **** Fit      -0.040420
 **** Fit      -0.043113
 **** Fit      -0.044947
 **** Fit      -0.045568
 **** Fit      -0.044793
 **** Fit      -0.042677
 **** Fit      -0.039492
 **** Fit      -0.035617
 **** Fit      -0.036092
 **** Fit      -0.037488
 **** Fit      -0.038037
 **** Fit      -0.037605
 **** Fit      -0.036199
 **** Fit      -0.048200
 **** Fit      -0.048673
 **** Fit      -0.048070
 **** Fit      -0.046423
 **** Fit      -0.043902
 **** Fit      -0.049080
 **** Fit      -0.051930
 **** Fit      -0.053872
 **** Fit      -0.054583
 **** Fit      -0.053886
 **** Fit      -0.051822
 **** Fit      -0.048643
 **** Fit      -0.044722
 **** Fit      -0.040440
 **** Fit      -0.049558
 **** Fit      -0.053805
 **** Fit      -0.057484
 **** Fit      -0.060088
 **** Fit      -0.061139
 **** Fit      -0.060361
 **** Fit      -0.057807
 **** Fit      -0.053838
 **** Fit      -0.048982
 **** Fit      -0.043765
 **** Fit      -0.038596
 **** Fit      -0.048025
 **** Fit      -0.053263
 **** Fit      -0.058457
 **** Fit      -0.063087
 **** Fit      -0.066475
 **** Fit      -0.067953
 **** Fit      -0.067131
 **** Fit      -0.064068
 **** Fit      -0.059249
 **** Fit      -0.053373
 **** Fit      -0.047128
 **** Fit      -0.041038
 **** Fit      -0.035421
 **** Fit      -0.044814
 **** Fit      -0.050418
 **** Fit      -0.056455
 **** Fit      -0.062574
 **** Fit      -0.068147
 **** Fit      -0.072319
 **** Fit      -0.074246
 **** Fit      -0.073440
 **** Fit      -0.069974
 **** Fit      -0.064411
 **** Fit      -0.057579
 **** Fit      -0.050325
 **** Fit      -0.043310
 **** Fit      -0.036927
 **** Fit      -0.045963
 **** Fit      -0.052070
 **** Fit      -0.058747
 **** Fit      -0.065613
 **** Fit      -0.071942
 **** Fit      -0.076734
 **** Fit      -0.079037
 **** Fit      -0.078348
 **** Fit      -0.074741
 **** Fit      -0.068743
 **** Fit      -0.061199
 **** Fit      -0.053086
 **** Fit      -0.045236
 **** Fit      -0.038150
 **** Fit      -0.032019
 **** Fit      -0.046356
 **** Fit      -0.052758
 **** Fit      -0.059821
 **** Fit      -0.067140
 **** Fit      -0.073928
 **** Fit      -0.079111
 **** Fit      -0.071811
 **** Fit      -0.063859
 **** Fit      -0.055120
 **** Fit      -0.046612
 **** Fit      -0.038963
 **** Fit      -0.032402
 **** Fit      -0.045918
 **** Fit      -0.052372
 **** Fit      -0.059526
 **** Fit      -0.066983
 **** Fit      -0.073964
 **** Fit      -0.079415
 **** Fit      -0.073397
 **** Fit      -0.065248
 **** Fit      -0.056133
 **** Fit      -0.047223
 **** Fit      -0.039234
 **** Fit      -0.032418
 **** Fit      -0.044658
 **** Fit      -0.050923
 **** Fit      -0.057885
 **** Fit      -0.065195
 **** Fit      -0.072161
 **** Fit      -0.077822
 **** Fit      -0.073187
 **** Fit      -0.065019
 **** Fit      -0.055845
 **** Fit      -0.046883
 **** Fit      -0.038856
 **** Fit      -0.032015
 **** Fit      -0.042658
 **** Fit      -0.048525
 **** Fit      -0.055044
 **** Fit      -0.061933
 **** Fit      -0.068621
 **** Fit      -0.074268
 **** Fit      -0.077925
 **** Fit      -0.078765
 **** Fit      -0.076312
 **** Fit      -0.070714
 **** Fit      -0.062869
 **** Fit      -0.054086
 **** Fit      -0.045504
 **** Fit      -0.037792
 **** Fit      -0.031183
 **** Fit      -0.040060
 **** Fit      -0.045365
 **** Fit      -0.051236
 **** Fit      -0.057440
 **** Fit      -0.063517
 **** Fit      -0.068744
 **** Fit      -0.072229
 **** Fit      -0.073124
 **** Fit      -0.070955
 **** Fit      -0.065912
 **** Fit      -0.058861
 **** Fit      -0.050956
 **** Fit      -0.043176
 **** Fit      -0.036100
 **** Fit      -0.041680
 **** Fit      -0.046766
 **** Fit      -0.052099
 **** Fit      -0.057294
 **** Fit      -0.061753
 **** Fit      -0.064724
 **** Fit      -0.065490
 **** Fit      -0.063673
 **** Fit      -0.059459
 **** Fit      -0.053551
 **** Fit      -0.046856
 **** Fit      -0.040152
 **** Fit      -0.033930
 **** Fit      -0.041982
 **** Fit      -0.046381
 **** Fit      -0.050603
 **** Fit      -0.054175
 **** Fit      -0.056520
 **** Fit      -0.057112
 **** Fit      -0.055687
 **** Fit      -0.052386
 **** Fit      -0.047708
 **** Fit      -0.042303
 **** Fit      -0.036755
 **** Fit      -0.040721
 **** Fit      -0.044041
 **** Fit      -0.046801
 **** Fit      -0.048589
 **** Fit      -0.049046
 **** Fit      -0.047995
 **** Fit      -0.045524
 **** Fit      -0.041957
 **** Fit      -0.037730
 **** Fit      -0.037993
 **** Fit      -0.040100
 **** Fit      -0.041462
 **** Fit      -0.041836
 **** Fit      -0.041103
 **** Fit      -0.039307
 **** Fit      -0.036643
 **** Fit      -0.046612
 **** Fit      -0.048080
 **** Fit      -0.048601
 **** Fit      -0.048058
 **** Fit      -0.046476
 **** Fit      -0.044012
 **** Fit      -0.048094
 **** Fit      -0.050844
 **** Fit      -0.052741
 **** Fit      -0.053485
 **** Fit      -0.052906
 **** Fit      -0.051026
 **** Fit      -0.048061
 **** Fit      -0.044342
 **** Fit      -0.040228
 **** Fit      -0.047718
 **** Fit      -0.051614
 **** Fit      -0.054974
 **** Fit      -0.057366
 **** Fit      -0.058390
 **** Fit      -0.057808
 **** Fit      -0.055637
 **** Fit      -0.052147
 **** Fit      -0.047770
 **** Fit      -0.042961
 **** Fit      -0.038106
 **** Fit      -0.045548
 **** Fit      -0.050164
 **** Fit      -0.054666
 **** Fit      -0.058631
 **** Fit      -0.061535
 **** Fit      -0.062876
 **** Fit      -0.062343
 **** Fit      -0.059938
 **** Fit      -0.055975
 **** Fit      -0.050971
 **** Fit      -0.045485
 **** Fit      -0.039988
 **** Fit      -0.046847
 **** Fit      -0.051904
 **** Fit      -0.056910
 **** Fit      -0.061393
 **** Fit      -0.064757
 **** Fit      -0.066418
 **** Fit      -0.066004
 **** Fit      -0.063483
 **** Fit      -0.059178
 **** Fit      -0.053664
 **** Fit      -0.047593
 **** Fit      -0.041527
 **** Fit      -0.035846
 **** Fit      -0.047390
 **** Fit      -0.052726
 **** Fit      -0.058065
 **** Fit      -0.062911
 **** Fit      -0.066628
 **** Fit      -0.068587
 **** Fit      -0.068364
 **** Fit      -0.065872
 **** Fit      -0.061404
 **** Fit      -0.055556
 **** Fit      -0.049059
 **** Fit      -0.042561
 **** Fit      -0.036501
 **** Fit      -0.047091
 **** Fit      -0.052512
 **** Fit      -0.057978
 **** Fit      -0.063001
 **** Fit      -0.066944
 **** Fit      -0.069159
 **** Fit      -0.069173
 **** Fit      -0.066828
 **** Fit      -0.062362
 **** Fit      -0.056380
 **** Fit      -0.049667
 **** Fit      -0.042937
 **** Fit      -0.036668
 **** Fit      -0.045948
 **** Fit      -0.051256
 **** Fit      -0.056638
 **** Fit      -0.061642
 **** Fit      -0.065661
 **** Fit      -0.068047
 **** Fit      -0.068282
 **** Fit      -0.066142
 **** Fit      -0.061821
 **** Fit      -0.055921
 **** Fit      -0.049249
 **** Fit      -0.042537
 **** Fit      -0.036276
 **** Fit      -0.044037
 **** Fit      -0.049049
 **** Fit      -0.054145
 **** Fit      -0.058922
 **** Fit      -0.062824
 **** Fit      -0.065229
 **** Fit      -0.065602
 **** Fit      -0.063689
 **** Fit      -0.059658
 **** Fit      -0.054086
 **** Fit      -0.047742
 **** Fit      -0.041326
 **** Fit      -0.035308
 **** Fit      -0.041492
 **** Fit      -0.046059
 **** Fit      -0.050694
 **** Fit      -0.055044
 **** Fit      -0.058620
 **** Fit      -0.060859
 **** Fit      -0.061265
 **** Fit      -0.059598
 **** Fit      -0.056006
 **** Fit      -0.050997
 **** Fit      -0.045250
 **** Fit      -0.039379
 **** Fit      -0.033813
 **** Fit      -0.042511
 **** Fit      -0.046563
 **** Fit      -0.050344
 **** Fit      -0.053438
 **** Fit      -0.055374
 **** Fit      -0.055739
 **** Fit      -0.054337
 **** Fit      -0.051287
 **** Fit      -0.047002
 **** Fit      -0.042027
 **** Fit      -0.036871
 **** Fit      -0.042079
 **** Fit      -0.045236
 **** Fit      -0.047792
 **** Fit      -0.049377
 **** Fit      -0.049676
 **** Fit      -0.048541
 **** Fit      -0.046063
 **** Fit      -0.042546
 **** Fit      -0.038399
 **** Fit      -0.040105
 **** Fit      -0.042153
 **** Fit      -0.043412
 **** Fit      -0.043652
 **** Fit      -0.042770
 **** Fit      -0.040823
 **** Fit      -0.038023
 **** Fit      -0.046409
 **** Fit      -0.046927
 **** Fit      -0.046475
 **** Fit      -0.045063
 **** Fit      -0.042822
 **** Fit      -0.045632
 **** Fit      -0.048082
 **** Fit      -0.049776
 **** Fit      -0.050471
 **** Fit      -0.050024
 **** Fit      -0.048440
 **** Fit      -0.045876
 **** Fit      -0.042595
 **** Fit      -0.047893
 **** Fit      -0.050726
 **** Fit      -0.052739
 **** Fit      -0.053633
 **** Fit      -0.053224
 **** Fit      -0.051504
 **** Fit      -0.048651
 **** Fit      -0.044977
 **** Fit      -0.040838
 **** Fit      -0.045877
 **** Fit      -0.049531
 **** Fit      -0.052696
 **** Fit      -0.055002
 **** Fit      -0.056101
 **** Fit      -0.055768
 **** Fit      -0.053974
 **** Fit      -0.050905
 **** Fit      -0.046910
 **** Fit      -0.042399
 **** Fit      -0.037749
 **** Fit      -0.046483
 **** Fit      -0.050363
 **** Fit      -0.053769
 **** Fit      -0.056307
 **** Fit      -0.057596
 **** Fit      -0.057372
 **** Fit      -0.055579
 **** Fit      -0.052397
 **** Fit      -0.048193
 **** Fit      -0.043420
 **** Fit      -0.038498
 **** Fit      -0.046303
 **** Fit      -0.050276
 **** Fit      -0.053805
 **** Fit      -0.056488
 **** Fit      -0.057927
 **** Fit      -0.057829
 **** Fit      -0.056107
 **** Fit      -0.052921
 **** Fit      -0.048646
 **** Fit      -0.043757
 **** Fit      -0.038704
 **** Fit      -0.045323
 **** Fit      -0.049250
 **** Fit      -0.052768
 **** Fit      -0.055488
 **** Fit      -0.057010
 **** Fit      -0.057028
 **** Fit      -0.055426
 **** Fit      -0.052344
 **** Fit      -0.048147
 **** Fit      -0.043312
 **** Fit      -0.038295
 **** Fit      -0.043603
 **** Fit      -0.047346
 **** Fit      -0.050717
 **** Fit      -0.053352
 **** Fit      -0.054869
 **** Fit      -0.054966
 **** Fit      -0.053516
 **** Fit      -0.050638
 **** Fit      -0.046671
 **** Fit      -0.042067
 **** Fit      -0.037260
 **** Fit      -0.044701
 **** Fit      -0.047803
 **** Fit      -0.050237
 **** Fit      -0.051658
 **** Fit      -0.051789
 **** Fit      -0.050511
 **** Fit      -0.047921
 **** Fit      -0.044317
 **** Fit      -0.040098
 **** Fit      -0.041510
 **** Fit      -0.044256
 **** Fit      -0.046404
 **** Fit      -0.047663
 **** Fit      -0.047794
 **** Fit      -0.046697
 **** Fit      -0.044451
 **** Fit      -0.041298
 **** Fit      -0.037571
 **** Fit      -0.042173
 **** Fit      -0.043238
 **** Fit      -0.043354
 **** Fit      -0.042440
 **** Fit      -0.040554
 **** Fit      -0.045627
 **** Fit      -0.046220
 **** Fit      -0.045882
 **** Fit      -0.044610
 **** Fit      -0.042509
 **** Fit      -0.045622
 **** Fit      -0.047216
 **** Fit      -0.047933
 **** Fit      -0.047641
 **** Fit      -0.046323
 **** Fit      -0.044089
 **** Fit      -0.041150
 **** Fit      -0.046362
 **** Fit      -0.048100
 **** Fit      -0.048931
 **** Fit      -0.048700
 **** Fit      -0.047380
 **** Fit      -0.045076
 **** Fit      -0.042012
 **** Fit      -0.043846
 **** Fit      -0.046341
 **** Fit      -0.048168
 **** Fit      -0.049086
 **** Fit      -0.048926
 **** Fit      -0.047644
 **** Fit      -0.045340
 **** Fit      -0.042240
 **** Fit      -0.043039
 **** Fit      -0.045529
 **** Fit      -0.047377
 **** Fit      -0.048342
 **** Fit      -0.048248
 **** Fit      -0.047039
 **** Fit      -0.044806
 **** Fit      -0.041765
 **** Fit      -0.043966
 **** Fit      -0.045762
 **** Fit      -0.046725
 **** Fit      -0.046682
 **** Fit      -0.045571
 **** Fit      -0.043472
 **** Fit      -0.040584
 **** Fit      -0.043431
 **** Fit      -0.044343
 **** Fit      -0.044332
 **** Fit      -0.043336
 **** Fit      -0.041422
 **** Fit      -0.041380
 **** Fit      -0.041383
 -----------------------------------------------------------------
 Leave Link  602 at Thu Apr 21 10:55:43 2022, MaxMem=   104857600 cpu:               2.4 elap:               2.4
 (Enter /opt/ohpc/pub/libs/gaussian/g16-A.03/haswell/g16/l9999.exe)

 Test job not archived.
 1\1\GINC-CASCADEB055\SP\RB3LYP\6-311++G(d,p)\C9H12N2O2\MNG228\21-Apr-2
 022\0\\#P B3LYP/6-311++G(d,p) Geom=Allcheck SCF=Tight EmpiricalDispers
 ion=GD3BJ Pop=CHELPG SP IOp(6/33=2)\\MAA1-VI1 geo opt\\0,1\C,0,13.1631
 41777,12.9372128051,11.7436827333\C,0,11.9430776932,12.2475253938,12.2
 929768032\C,0,10.8242789953,12.880849354,12.644657965\C,0,11.998198306
 2,10.7393405131,12.3934038945\O,0,11.2407567796,10.0213065852,11.78827
 12613\O,0,12.9648312066,10.2420199588,13.1751612616\H,0,13.3843252575,
 12.5655049907,10.7380386022\H,0,14.0440205804,12.7466981558,12.3608351
 974\H,0,13.0050138004,14.0158790657,11.6847348162\H,0,10.7407171291,13
 .9599893618,12.5632898283\H,0,9.9560725165,12.336309424,12.9965384645\
 H,0,13.3830444097,10.9384423703,13.7509147927\C,0,14.2084238834,15.421
 2827339,18.1500142939\C,0,13.5572883699,14.8009604186,17.171533372\N,0
 ,14.0324406034,13.6941288774,16.4424936659\C,0,15.2366256295,13.016749
 4694,16.5765207653\C,0,15.2116240271,12.023071201,15.6399136561\N,0,14
 .0263128283,12.0723447027,14.931713471\C,0,13.3431629121,13.0753666552
 ,15.4327732657\H,0,13.7473716179,16.2640846418,18.6453723428\H,0,15.19
 29852005,15.1233541306,18.4856960836\H,0,12.5715309865,15.1166135293,1
 6.852686931\H,0,15.9758353333,13.2954309853,17.3053894383\H,0,15.96258
 40824,11.2789227712,15.4307919491\H,0,12.3663360742,13.3966119051,15.1
 065951451\\Version=ES64L-G16RevA.03\State=1-A\HF=-610.3210599\RMSD=4.5
 34e-09\Dipole=1.2178984,2.7561499,2.1431164\Quadrupole=3.7880817,-5.87
 79704,2.0898887,-7.4077603,-2.3322043,-3.7967979\PG=C01 [X(C9H12N2O2)]
 \\@


 MOM AND DAD WENT TO ALPHA CENTAURI AND ALL
 I GOT WAS THIS DUMB T-SHIRT.
 Job cpu time:       0 days  0 hours  5 minutes 54.9 seconds.
 Elapsed time:       0 days  0 hours  5 minutes 56.5 seconds.
 File lengths (MBytes):  RWF=    304 Int=      0 D2E=      0 Chk=     32 Scr=     32
 Normal termination of Gaussian 16 at Thu Apr 21 10:55:43 2022.
