 Entering Gaussian System, Link 0=g16
 Initial command:
 /opt/ohpc/pub/libs/gaussian/g16-A.03/haswell/g16/l1.exe "g16_scratch/Gau-305235.inp" -scrdir="g16_scratch/"
 Entering Link 1 = /opt/ohpc/pub/libs/gaussian/g16-A.03/haswell/g16/l1.exe PID=    305236.
  
 Copyright (c) 1988,1990,1992,1993,1995,1998,2003,2009,2016,
            Gaussian, Inc.  All Rights Reserved.
  
 This is part of the Gaussian(R) 16 program.  It is based on
 the Gaussian(R) 09 system (copyright 2009, Gaussian, Inc.),
 the Gaussian(R) 03 system (copyright 2003, Gaussian, Inc.),
 the Gaussian(R) 98 system (copyright 1998, Gaussian, Inc.),
 the Gaussian(R) 94 system (copyright 1995, Gaussian, Inc.),
 the Gaussian 92(TM) system (copyright 1992, Gaussian, Inc.),
 the Gaussian 90(TM) system (copyright 1990, Gaussian, Inc.),
 the Gaussian 88(TM) system (copyright 1988, Gaussian, Inc.),
 the Gaussian 86(TM) system (copyright 1986, Carnegie Mellon
 University), and the Gaussian 82(TM) system (copyright 1983,
 Carnegie Mellon University). Gaussian is a federally registered
 trademark of Gaussian, Inc.
  
 This software contains proprietary and confidential information,
 including trade secrets, belonging to Gaussian, Inc.
  
 This software is provided under written license and may be
 used, copied, transmitted, or stored only in accord with that
 written license.
  
 The following legend is applicable only to US Government
 contracts under FAR:
  
                    RESTRICTED RIGHTS LEGEND
  
 Use, reproduction and disclosure by the US Government is
 subject to restrictions as set forth in subparagraphs (a)
 and (c) of the Commercial Computer Software - Restricted
 Rights clause in FAR 52.227-19.
  
 Gaussian, Inc.
 340 Quinnipiac St., Bldg. 40, Wallingford CT 06492
  
  
 ---------------------------------------------------------------
 Warning -- This program may not be used in any manner that
 competes with the business of Gaussian, Inc. or will provide
 assistance to any competitor of Gaussian, Inc.  The licensee
 of this program is prohibited from giving any competitor of
 Gaussian, Inc. access to this program.  By using this program,
 the user acknowledges that Gaussian, Inc. is engaged in the
 business of creating and licensing software in the field of
 computational chemistry and represents and warrants to the
 licensee that it is not a competitor of Gaussian, Inc. and that
 it will not use this program in any manner prohibited above.
 ---------------------------------------------------------------
  

 Cite this work as:
 Gaussian 16, Revision A.03,
 M. J. Frisch, G. W. Trucks, H. B. Schlegel, G. E. Scuseria, 
 M. A. Robb, J. R. Cheeseman, G. Scalmani, V. Barone, 
 G. A. Petersson, H. Nakatsuji, X. Li, M. Caricato, A. V. Marenich, 
 J. Bloino, B. G. Janesko, R. Gomperts, B. Mennucci, H. P. Hratchian, 
 J. V. Ortiz, A. F. Izmaylov, J. L. Sonnenberg, D. Williams-Young, 
 F. Ding, F. Lipparini, F. Egidi, J. Goings, B. Peng, A. Petrone, 
 T. Henderson, D. Ranasinghe, V. G. Zakrzewski, J. Gao, N. Rega, 
 G. Zheng, W. Liang, M. Hada, M. Ehara, K. Toyota, R. Fukuda, 
 J. Hasegawa, M. Ishida, T. Nakajima, Y. Honda, O. Kitao, H. Nakai, 
 T. Vreven, K. Throssell, J. A. Montgomery, Jr., J. E. Peralta, 
 F. Ogliaro, M. J. Bearpark, J. J. Heyd, E. N. Brothers, K. N. Kudin, 
 V. N. Staroverov, T. A. Keith, R. Kobayashi, J. Normand, 
 K. Raghavachari, A. P. Rendell, J. C. Burant, S. S. Iyengar, 
 J. Tomasi, M. Cossi, J. M. Millam, M. Klene, C. Adamo, R. Cammi, 
 J. W. Ochterski, R. L. Martin, K. Morokuma, O. Farkas, 
 J. B. Foresman, and D. J. Fox, Gaussian, Inc., Wallingford CT, 2016.
 
 ******************************************
 Gaussian 16:  ES64L-G16RevA.03 25-Dec-2016
                21-Apr-2022 
 ******************************************
 %Mem=192GB
 %NProcShared=48
 Will use up to   48 processors via shared memory.
 %Chk=MAA1-AS1-4.chk
 ---------------------------------------------------------------------
 #n B3LYP/6-311++G(d,p) Opt freq EmpiricalDispersion=GD3BJ IOp(6/33=2)
 ---------------------------------------------------------------------
 1/18=20,19=15,26=3,38=1/1,3;
 2/9=110,12=2,17=6,18=5,40=1/2;
 3/5=4,6=6,7=1111,11=2,25=1,30=1,71=1,74=-5,124=41/1,2,3;
 4//1;
 5/5=2,38=5/2;
 6/7=2,8=2,9=2,10=2,28=1,33=2/1;
 7//1,2,3,16;
 1/18=20,19=15,26=3/3(2);
 2/9=110/2;
 99//99;
 2/9=110/2;
 3/5=4,6=6,7=1111,11=2,25=1,30=1,71=1,74=-5,124=41/1,2,3;
 4/5=5,16=3,69=1/1;
 5/5=2,38=5/2;
 7//1,2,3,16;
 1/18=20,19=15,26=3/3(-5);
 2/9=110/2;
 6/7=2,8=2,9=2,10=2,19=2,28=1,33=2/1;
 99/9=1/99;
 ----------------
 MAA1-AS1 geo opt
 ----------------
 Symbolic Z-matrix:
 Charge =  0 Multiplicity = 1
 C                     12.39     11.302    13.496 
 C                     12.584    12.357    12.427 
 C                     12.788    12.167    11.132 
 C                     12.73     13.772    12.824 
 O                     13.515    14.294    13.598 
 O                     11.78     14.592    12.248 
 H                     12.389    11.682    14.517 
 H                     13.365    10.817    13.557 
 H                     11.619    10.618    13.143 
 H                     12.727    11.231    10.598 
 H                     13.028    13.08     10.607 
 H                     11.085    14.088    11.853 
 C                     21.095    12.101    16.841 
 C                     20.176    11.902    15.876 
 C                     18.953    12.673    15.887 
 C                     17.83     12.218    15.079 
 C                     16.673    12.981    14.885 
 C                     16.531    14.184    15.57 
 C                     17.553    14.68     16.388 
 C                     18.774    13.904    16.532 
 N                     15.418    14.931    15.469 
 H                     22.042    11.583    16.849 
 H                     20.823    12.715    17.688 
 H                     20.341    11.191    15.08 
 H                     17.956    11.37     14.422 
 H                     15.927    12.46     14.304 
 H                     17.493    15.694    16.753 
 H                     19.483    14.366    17.202 
 H                     14.684    14.647    14.836 
 H                     15.037    15.382    16.289 
 
 Add virtual bond connecting atoms H29        and O5         Dist= 3.29D+00.

 GradGradGradGradGradGradGradGradGradGradGradGradGradGradGradGradGradGrad
 Berny optimization.
 Initialization pass.
                           ----------------------------
                           !    Initial Parameters    !
                           ! (Angstroms and Degrees)  !
 --------------------------                            --------------------------
 ! Name  Definition              Value          Derivative Info.                !
 --------------------------------------------------------------------------------
 ! R1    R(1,2)                  1.5144         estimate D2E/DX2                !
 ! R2    R(1,7)                  1.0894         estimate D2E/DX2                !
 ! R3    R(1,8)                  1.0907         estimate D2E/DX2                !
 ! R4    R(1,9)                  1.0895         estimate D2E/DX2                !
 ! R5    R(2,3)                  1.3247         estimate D2E/DX2                !
 ! R6    R(2,4)                  1.4769         estimate D2E/DX2                !
 ! R7    R(3,10)                 1.0793         estimate D2E/DX2                !
 ! R8    R(3,11)                 1.0802         estimate D2E/DX2                !
 ! R9    R(4,5)                  1.2197         estimate D2E/DX2                !
 ! R10   R(4,6)                  1.3808         estimate D2E/DX2                !
 ! R11   R(5,29)                 1.7389         estimate D2E/DX2                !
 ! R12   R(6,12)                 0.945          estimate D2E/DX2                !
 ! R13   R(13,14)                1.3474         estimate D2E/DX2                !
 ! R14   R(13,22)                1.0794         estimate D2E/DX2                !
 ! R15   R(13,23)                1.0809         estimate D2E/DX2                !
 ! R16   R(14,15)                1.4458         estimate D2E/DX2                !
 ! R17   R(14,24)                1.08           estimate D2E/DX2                !
 ! R18   R(15,16)                1.4564         estimate D2E/DX2                !
 ! R19   R(15,20)                1.4012         estimate D2E/DX2                !
 ! R20   R(16,17)                1.3994         estimate D2E/DX2                !
 ! R21   R(16,25)                1.0801         estimate D2E/DX2                !
 ! R22   R(17,18)                1.3916         estimate D2E/DX2                !
 ! R23   R(17,26)                1.0796         estimate D2E/DX2                !
 ! R24   R(18,19)                1.3999         estimate D2E/DX2                !
 ! R25   R(18,21)                1.3442         estimate D2E/DX2                !
 ! R26   R(19,20)                1.4539         estimate D2E/DX2                !
 ! R27   R(19,27)                1.0794         estimate D2E/DX2                !
 ! R28   R(20,28)                1.0794         estimate D2E/DX2                !
 ! R29   R(21,29)                1.01           estimate D2E/DX2                !
 ! R30   R(21,30)                1.0104         estimate D2E/DX2                !
 ! A1    A(2,1,7)              114.751          estimate D2E/DX2                !
 ! A2    A(2,1,8)              103.5766         estimate D2E/DX2                !
 ! A3    A(2,1,9)              107.4167         estimate D2E/DX2                !
 ! A4    A(7,1,8)               95.9415         estimate D2E/DX2                !
 ! A5    A(7,1,9)              121.4673         estimate D2E/DX2                !
 ! A6    A(8,1,9)              111.8127         estimate D2E/DX2                !
 ! A7    A(1,2,3)              127.5813         estimate D2E/DX2                !
 ! A8    A(1,2,4)              119.365          estimate D2E/DX2                !
 ! A9    A(3,2,4)              112.6432         estimate D2E/DX2                !
 ! A10   A(2,3,10)             126.8232         estimate D2E/DX2                !
 ! A11   A(2,3,11)             112.8381         estimate D2E/DX2                !
 ! A12   A(10,3,11)            120.3363         estimate D2E/DX2                !
 ! A13   A(2,4,5)              130.1078         estimate D2E/DX2                !
 ! A14   A(2,4,6)              112.8813         estimate D2E/DX2                !
 ! A15   A(5,4,6)              116.9579         estimate D2E/DX2                !
 ! A16   A(4,6,12)             111.3226         estimate D2E/DX2                !
 ! A17   A(14,13,22)           122.196          estimate D2E/DX2                !
 ! A18   A(14,13,23)           118.2604         estimate D2E/DX2                !
 ! A19   A(22,13,23)           119.1791         estimate D2E/DX2                !
 ! A20   A(13,14,15)           119.5221         estimate D2E/DX2                !
 ! A21   A(13,14,24)           121.3935         estimate D2E/DX2                !
 ! A22   A(15,14,24)           119.073          estimate D2E/DX2                !
 ! A23   A(14,15,16)           118.78           estimate D2E/DX2                !
 ! A24   A(14,15,20)           125.4544         estimate D2E/DX2                !
 ! A25   A(16,15,20)           115.553          estimate D2E/DX2                !
 ! A26   A(15,16,17)           122.9618         estimate D2E/DX2                !
 ! A27   A(15,16,25)           119.525          estimate D2E/DX2                !
 ! A28   A(17,16,25)           116.1151         estimate D2E/DX2                !
 ! A29   A(16,17,18)           119.1727         estimate D2E/DX2                !
 ! A30   A(16,17,26)           112.5059         estimate D2E/DX2                !
 ! A31   A(18,17,26)           127.7034         estimate D2E/DX2                !
 ! A32   A(17,18,19)           121.2942         estimate D2E/DX2                !
 ! A33   A(17,18,21)           121.8629         estimate D2E/DX2                !
 ! A34   A(19,18,21)           116.8393         estimate D2E/DX2                !
 ! A35   A(18,19,20)           118.8089         estimate D2E/DX2                !
 ! A36   A(18,19,27)           119.3329         estimate D2E/DX2                !
 ! A37   A(20,19,27)           120.9718         estimate D2E/DX2                !
 ! A38   A(15,20,19)           122.0458         estimate D2E/DX2                !
 ! A39   A(15,20,28)           125.2996         estimate D2E/DX2                !
 ! A40   A(19,20,28)           112.6236         estimate D2E/DX2                !
 ! A41   A(18,21,29)           119.5084         estimate D2E/DX2                !
 ! A42   A(18,21,30)           119.9514         estimate D2E/DX2                !
 ! A43   A(29,21,30)           111.1061         estimate D2E/DX2                !
 ! A44   L(4,5,29,7,-1)        167.3077         estimate D2E/DX2                !
 ! A45   L(5,29,21,25,-1)      180.5454         estimate D2E/DX2                !
 ! A46   L(4,5,29,7,-2)        174.3723         estimate D2E/DX2                !
 ! A47   L(5,29,21,25,-2)      172.4261         estimate D2E/DX2                !
 ! D1    D(7,1,2,3)            171.1048         estimate D2E/DX2                !
 ! D2    D(7,1,2,4)             -0.9658         estimate D2E/DX2                !
 ! D3    D(8,1,2,3)             67.8905         estimate D2E/DX2                !
 ! D4    D(8,1,2,4)           -104.1801         estimate D2E/DX2                !
 ! D5    D(9,1,2,3)            -50.5587         estimate D2E/DX2                !
 ! D6    D(9,1,2,4)            137.3707         estimate D2E/DX2                !
 ! D7    D(1,2,3,10)             8.3431         estimate D2E/DX2                !
 ! D8    D(1,2,3,11)          -172.2278         estimate D2E/DX2                !
 ! D9    D(4,2,3,10)          -179.142          estimate D2E/DX2                !
 ! D10   D(4,2,3,11)             0.2871         estimate D2E/DX2                !
 ! D11   D(1,2,4,5)             54.9019         estimate D2E/DX2                !
 ! D12   D(1,2,4,6)           -122.3256         estimate D2E/DX2                !
 ! D13   D(3,2,4,5)           -118.2951         estimate D2E/DX2                !
 ! D14   D(3,2,4,6)             64.4775         estimate D2E/DX2                !
 ! D15   D(2,4,21,18)           27.9253         estimate D2E/DX2                !
 ! D16   D(2,4,21,30)         -120.1572         estimate D2E/DX2                !
 ! D17   D(6,4,21,18)         -156.8629         estimate D2E/DX2                !
 ! D18   D(6,4,21,30)           55.0546         estimate D2E/DX2                !
 ! D19   D(2,4,6,12)            12.6471         estimate D2E/DX2                !
 ! D20   D(5,4,6,12)          -164.9741         estimate D2E/DX2                !
 ! D21   D(22,13,14,15)       -177.1008         estimate D2E/DX2                !
 ! D22   D(22,13,14,24)          1.6588         estimate D2E/DX2                !
 ! D23   D(23,13,14,15)          9.8908         estimate D2E/DX2                !
 ! D24   D(23,13,14,24)       -171.3497         estimate D2E/DX2                !
 ! D25   D(13,14,15,16)       -163.7492         estimate D2E/DX2                !
 ! D26   D(13,14,15,20)         21.7991         estimate D2E/DX2                !
 ! D27   D(24,14,15,16)         17.4623         estimate D2E/DX2                !
 ! D28   D(24,14,15,20)       -156.9894         estimate D2E/DX2                !
 ! D29   D(14,15,16,17)       -171.3916         estimate D2E/DX2                !
 ! D30   D(14,15,16,25)         -5.4208         estimate D2E/DX2                !
 ! D31   D(20,15,16,17)          3.6004         estimate D2E/DX2                !
 ! D32   D(20,15,16,25)        169.5711         estimate D2E/DX2                !
 ! D33   D(14,15,20,19)        173.8784         estimate D2E/DX2                !
 ! D34   D(14,15,20,28)         -8.2945         estimate D2E/DX2                !
 ! D35   D(16,15,20,19)         -0.7319         estimate D2E/DX2                !
 ! D36   D(16,15,20,28)        177.0952         estimate D2E/DX2                !
 ! D37   D(15,16,17,18)         -5.1103         estimate D2E/DX2                !
 ! D38   D(15,16,17,26)       -176.7858         estimate D2E/DX2                !
 ! D39   D(25,16,17,18)       -171.5234         estimate D2E/DX2                !
 ! D40   D(25,16,17,26)         16.8011         estimate D2E/DX2                !
 ! D41   D(16,17,18,19)          3.6505         estimate D2E/DX2                !
 ! D42   D(16,17,18,21)       -177.0704         estimate D2E/DX2                !
 ! D43   D(26,17,18,19)        173.9178         estimate D2E/DX2                !
 ! D44   D(26,17,18,21)         -6.8031         estimate D2E/DX2                !
 ! D45   D(17,18,19,20)         -0.9158         estimate D2E/DX2                !
 ! D46   D(17,18,19,27)        168.4162         estimate D2E/DX2                !
 ! D47   D(21,18,19,20)        179.7704         estimate D2E/DX2                !
 ! D48   D(21,18,19,27)        -10.8976         estimate D2E/DX2                !
 ! D49   D(17,18,21,29)         -3.9023         estimate D2E/DX2                !
 ! D50   D(17,18,21,30)        139.5794         estimate D2E/DX2                !
 ! D51   D(19,18,21,29)        175.4073         estimate D2E/DX2                !
 ! D52   D(19,18,21,30)        -41.111          estimate D2E/DX2                !
 ! D53   D(18,19,20,15)         -0.5348         estimate D2E/DX2                !
 ! D54   D(18,19,20,28)       -178.6136         estimate D2E/DX2                !
 ! D55   D(27,19,20,15)       -169.6859         estimate D2E/DX2                !
 ! D56   D(27,19,20,28)         12.2352         estimate D2E/DX2                !
 --------------------------------------------------------------------------------
 Trust Radius=3.00D-01 FncErr=1.00D-07 GrdErr=1.00D-06 EigMax=2.50D+02 EigMin=1.00D-04
 Number of steps in this run=    143 maximum allowed number of steps=    180.
 GradGradGradGradGradGradGradGradGradGradGradGradGradGradGradGradGradGrad

                          Input orientation:                          
 ---------------------------------------------------------------------
 Center     Atomic      Atomic             Coordinates (Angstroms)
 Number     Number       Type             X           Y           Z
 ---------------------------------------------------------------------
      1          6           0       12.390000   11.302000   13.496000
      2          6           0       12.584000   12.357000   12.427000
      3          6           0       12.788000   12.167000   11.132000
      4          6           0       12.730000   13.772000   12.824000
      5          8           0       13.515000   14.294000   13.598000
      6          8           0       11.780000   14.592000   12.248000
      7          1           0       12.389000   11.682000   14.517000
      8          1           0       13.365000   10.817000   13.557000
      9          1           0       11.619000   10.618000   13.143000
     10          1           0       12.727000   11.231000   10.598000
     11          1           0       13.028000   13.080000   10.607000
     12          1           0       11.085000   14.088000   11.853000
     13          6           0       21.095000   12.101000   16.841000
     14          6           0       20.176000   11.902000   15.876000
     15          6           0       18.953000   12.673000   15.887000
     16          6           0       17.830000   12.218000   15.079000
     17          6           0       16.673000   12.981000   14.885000
     18          6           0       16.531000   14.184000   15.570000
     19          6           0       17.553000   14.680000   16.388000
     20          6           0       18.774000   13.904000   16.532000
     21          7           0       15.418000   14.931000   15.469000
     22          1           0       22.042000   11.583000   16.849000
     23          1           0       20.823000   12.715000   17.688000
     24          1           0       20.341000   11.191000   15.080000
     25          1           0       17.956000   11.370000   14.422000
     26          1           0       15.927000   12.460000   14.304000
     27          1           0       17.493000   15.694000   16.753000
     28          1           0       19.483000   14.366000   17.202000
     29          1           0       14.684000   14.647000   14.836000
     30          1           0       15.037000   15.382000   16.289000
 ---------------------------------------------------------------------
                    Distance matrix (angstroms):
                    1          2          3          4          5
     1  C    0.000000
     2  C    1.514405   0.000000
     3  C    2.548554   1.324666   0.000000
     4  C    2.582263   1.476872   2.332864   0.000000
     5  O    3.198139   2.447442   3.336737   1.219748   0.000000
     6  O    3.571233   2.381949   2.853444   1.380824   2.218452
     7  H    1.089423   2.204938   3.442768   2.711205   2.989144
     8  H    1.090675   2.063604   2.834793   3.110071   3.480476
     9  H    1.089452   2.113765   2.794653   3.359136   4.161108
    10  H    2.918392   2.152572   1.079339   3.378131   4.359233
    11  H    3.451760   2.008050   1.080182   2.341529   3.264513
    12  H    3.487731   2.360686   2.666513   1.936162   2.998727
    13  C    9.359725   9.590936  10.079846   9.428773   8.531278
    14  C    8.163712   8.351113   8.783980   8.261629   7.435043
    15  C    7.118251   7.255041   7.802133   7.022499   6.118742
    16  C    5.739211   5.879876   6.403372   5.788777   5.012221
    17  C    4.805461   4.811555   5.462676   4.518921   3.654217
    18  C    5.454840   5.366115   6.146070   4.707214   3.605155
    19  C    6.814038   6.765856   7.526349   6.065302   4.923265
    20  C    7.532805   7.586853   8.246779   7.092011   6.034694
    21  N    5.121636   4.889867   5.776345   3.945206   2.743687
    22  H   10.221677  10.469333  10.893193  10.378135   9.519887
    23  H    9.522863   9.781994  10.384732   9.501179   8.522218
    24  H    8.108007   8.280641   8.578292   8.347360   7.643246
    25  H    5.642912   5.814858   6.177988   5.969446   5.380635
    26  H    3.808438   3.835282   4.472220   3.759329   3.111227
    27  H    7.479193   7.344939   8.134642   6.466629   5.266736
    28  H    8.569316   8.627451   9.300727   8.069865   6.972161
    29  H    4.271658   3.931588   4.844051   2.938007   1.738912
    30  H    5.608374   5.484786   6.479882   4.463247   3.277455
                    6          7          8          9         10
     6  O    0.000000
     7  H    3.739966   0.000000
     8  H    4.298410   1.619383   0.000000
     9  H    4.076717   1.900756   1.805412   0.000000
    10  H    3.862076   3.959319   3.055179   2.842615   0.000000
    11  H    2.556664   4.201288   3.733261   3.804999   1.873361
    12  H    0.945022   3.819182   4.336065   3.740342   3.526136
    13  C   10.680354   9.020586   8.496247  10.279546  10.476420
    14  C    9.533693   7.907759   7.276311   9.074150   9.153968
    15  C    8.269027   6.778280   6.332407   8.095685   8.295539
    16  C    7.088931   5.496146   4.920926   6.699598   6.862517
    17  C    5.787101   4.491712   4.170053   5.844763   6.083731
    18  C    5.811553   4.952270   5.041073   6.537158   6.921807
    19  C    7.104567   6.257439   6.362128   7.889374   8.289148
    20  C    8.230555   7.054483   6.901991   8.571881   8.883890
    21  N    4.870812   4.542813   4.979513   6.200375   6.682673
    22  H   11.641818   9.931185   9.312054  11.104260  11.223552
    23  H   10.718796   9.069437   8.734376  10.477025  10.863497
    24  H    9.637310   7.987012   7.150104   8.952853   8.835322
    25  H    7.297296   5.576545   4.704393   6.508373   6.479563
    26  H    5.096094   3.628787   3.133896   4.826981   5.048255
    27  H    7.358519   6.866342   7.144223   8.561644   8.973135
    28  H    9.161299   8.045988   7.956843   9.610696   9.954124
    29  H    3.890242   3.762979   4.247882   5.337913   5.784423
    30  H    5.249936   4.882816   5.576615   6.654002   7.413122
                   11         12         13         14         15
    11  H    0.000000
    12  H    2.518696   0.000000
    13  C   10.241957  11.359067   0.000000
    14  C    8.957899  10.178871   1.347363   0.000000
    15  C    7.946677   8.954374   2.413600   1.445784   0.000000
    16  C    6.618235   7.707075   3.711948   2.497755   1.456372
    17  C    5.621131   6.453233   4.914715   3.797016   2.509436
    18  C    6.174236   6.594257   5.175367   4.311286   2.872228
    19  C    7.513693   7.921598   4.404794   3.854810   2.497809
    20  C    8.294644   9.002645   2.955221   2.530602   1.401223
    21  N    5.725150   5.706224   6.489962   5.655003   4.215390
    22  H   11.065973  12.300036   1.079443   2.128484   3.414010
    23  H   10.537353  11.435078   1.080920   2.088761   2.596587
    24  H    8.778156  10.221530   2.120787   1.079982   2.184975
    25  H    6.462469   7.822910   4.029794   2.706573   2.199555
    26  H    4.738819   5.665929   5.768316   4.564707   3.421686
    27  H    8.033837   8.225065   5.088398   4.727249   3.465256
    28  H    9.317448   9.960697   2.803407   2.882676   2.208251
    29  H    4.804401   4.707820   7.183527   6.227254   4.819298
    30  H    6.451388   6.080365   6.911514   6.220152   4.778634
                   16         17         18         19         20
    16  C    0.000000
    17  C    1.399448   0.000000
    18  C    2.406998   1.391617   0.000000
    19  C    2.802080   2.433107   1.399866   0.000000
    20  C    2.417631   2.824666   2.456602   1.453875   0.000000
    21  N    3.651056   2.391355   1.344239   2.337902   3.667074
    22  H    4.612707   5.885394   6.226730   5.473121   4.020865
    23  H    4.001492   5.014984   5.006511   4.030400   2.635993
    24  H    2.712905   4.086117   4.869728   4.653701   3.453138
    25  H    1.080106   2.110872   3.356654   3.870874   3.397408
    26  H    2.068961   1.079592   2.222554   3.451859   3.892882
    27  H    3.872779   3.394436   2.145934   1.079361   2.212217
    28  H    3.442883   3.896513   3.377995   2.118040   1.079363
    29  H    3.982010   2.595010   2.040719   3.262048   4.489606
    30  H    4.390427   3.226843   2.045532   2.613974   4.026003
                   21         22         23         24         25
    21  N    0.000000
    22  H    7.549230   0.000000
    23  H    6.248891   1.863144   0.000000
    24  H    6.194744   2.485242   3.058850   0.000000
    25  H    4.496485   4.757215   4.549227   2.480570   0.000000
    26  H    2.778875   6.681271   5.957122   4.657889   2.306266
    27  H    2.556648   6.132123   4.564818   5.584536   4.934056
    28  H    4.454968   3.797128   2.181192   3.914035   4.363043
    29  H    1.010000   8.220732   7.039449   6.633636   4.649313
    30  H    1.010427   7.988493   6.522874   6.867210   5.301169
                   26         27         28         29         30
    26  H    0.000000
    27  H    4.348415   0.000000
    28  H    4.967532   2.434191   0.000000
    29  H    2.571195   3.558311   5.357921   0.000000
    30  H    3.642857   2.518844   4.651101   1.666146   0.000000
 Stoichiometry    C12H15NO2
 Framework group  C1[X(C12H15NO2)]
 Deg. of freedom    84
 Full point group                 C1      NOp   1
 Largest Abelian subgroup         C1      NOp   1
 Largest concise Abelian subgroup C1      NOp   1
                         Standard orientation:                         
 ---------------------------------------------------------------------
 Center     Atomic      Atomic             Coordinates (Angstroms)
 Number     Number       Type             X           Y           Z
 ---------------------------------------------------------------------
      1          6           0       -3.396688   -1.551204    1.484901
      2          6           0       -3.771569   -1.006846    0.122344
      3          6           0       -4.202856   -1.687691   -0.928932
      4          6           0       -3.502440    0.411295   -0.190062
      5          8           0       -2.461831    1.044962   -0.131904
      6          8           0       -4.639469    1.106705   -0.550957
      7          1           0       -2.924086   -0.829462    2.150165
      8          1           0       -2.494495   -2.132000    1.289208
      9          1           0       -4.218887   -2.181664    1.821671
     10          1           0       -4.478927   -2.730795   -0.955251
     11          1           0       -4.273294   -1.082027   -1.820562
     12          1           0       -5.421053    0.613476   -0.353679
     13          6           0        5.817465   -1.012211   -0.068590
     14          6           0        4.557107   -1.397915   -0.348087
     15          6           0        3.461580   -0.488346   -0.097499
     16          6           0        2.105537   -1.018050   -0.057764
     17          6           0        0.970596   -0.201512    0.002464
     18          6           0        1.131154    1.174519    0.134211
     19          6           0        2.401829    1.761887    0.131481
     20          6           0        3.569619    0.904739    0.007716
     21          7           0        0.079724    2.003242    0.255419
     22          1           0        6.670933   -1.638072   -0.280925
     23          1           0        5.961095   -0.095559    0.485944
     24          1           0        4.347081   -2.367401   -0.775110
     25          1           0        1.932148   -2.055912   -0.301501
     26          1           0        0.056168   -0.770035    0.080708
     27          1           0        2.488416    2.834361    0.045911
     28          1           0        4.495957    1.457758    0.040777
     29          1           0       -0.857024    1.630943    0.192187
     30          1           0        0.120292    2.778381    0.902316
 ---------------------------------------------------------------------
 Rotational constants (GHZ):           1.2639390           0.2018092           0.1817145
 Standard basis: 6-311++G(d,p) (5D, 7F)
 There are   450 symmetry adapted cartesian basis functions of A   symmetry.
 There are   435 symmetry adapted basis functions of A   symmetry.
   435 basis functions,   675 primitive gaussians,   450 cartesian basis functions
    55 alpha electrons       55 beta electrons
       nuclear repulsion energy       880.6895596521 Hartrees.
 NAtoms=   30 NActive=   30 NUniq=   30 SFac= 1.00D+00 NAtFMM=   60 NAOKFM=F Big=F
 Integral buffers will be    131072 words long.
 Raffenetti 2 integral format.
 Two-electron integral symmetry is turned on.
 Nuclear repulsion after empirical dispersion term =      880.6388417627 Hartrees.
 One-electron integrals computed using PRISM.
 NBasis=   435 RedAO= T EigKep=  1.84D-06  NBF=   435
 NBsUse=   434 1.00D-06 EigRej=  7.79D-07 NBFU=   434
 ExpMin= 3.60D-02 ExpMax= 8.59D+03 ExpMxC= 1.30D+03 IAcc=3 IRadAn=         5 AccDes= 0.00D+00
 Harris functional with IExCor=  402 and IRadAn=       5 diagonalized for initial guess.
 HarFok:  IExCor=  402 AccDes= 0.00D+00 IRadAn=         5 IDoV= 1 UseB2=F ITyADJ=14
 ICtDFT=  3500011 ScaDFX=  1.000000  1.000000  1.000000  1.000000
 FoFCou: FMM=F IPFlag=           0 FMFlag=      100000 FMFlg1=           0
         NFxFlg=           0 DoJE=T BraDBF=F KetDBF=T FulRan=T
         wScrn=  0.000000 ICntrl=       500 IOpCl=  0 I1Cent=   200000004 NGrid=           0
         NMat0=    1 NMatS0=      1 NMatT0=    0 NMatD0=    1 NMtDS0=    0 NMtDT0=    0
 Petite list used in FoFCou.
 Requested convergence on RMS density matrix=1.00D-08 within 128 cycles.
 Requested convergence on MAX density matrix=1.00D-06.
 Requested convergence on             energy=1.00D-06.
 No special actions if energy rises.
 SCF Done:  E(RB3LYP) =  -671.687971132     A.U. after   15 cycles
            NFock= 15  Conv=0.82D-08     -V/T= 2.0041
 SCF density gives NOpUse=  1 NOpAll=  1.

 **********************************************************************

            Population analysis using the SCF density.

 **********************************************************************

 Orbital symmetries:
 BldTbl:  Degeneracy threshold= 1.00D-02
       Occupied  (A) (A) (A) (A) (A) (A) (A) (A) (A) (A) (A) (A)
                 (A) (A) (A) (A) (A) (A) (A) (A) (A) (A) (A) (A)
                 (A) (A) (A) (A) (A) (A) (A) (A) (A) (A) (A) (A)
                 (A) (A) (A) (A) (A) (A) (A) (A) (A) (A) (A) (A)
                 (A) (A) (A) (A) (A) (A) (A)
       Virtual   (A) (A) (A) (A) (A) (A) (A) (A) (A) (A) (A) (A)
                 (A) (A) (A) (A) (A) (A) (A) (A) (A) (A) (A) (A)
                 (A) (A) (A) (A) (A) (A) (A) (A) (A) (A) (A) (A)
                 (A) (A) (A) (A) (A) (A) (A) (A) (A) (A) (A) (A)
                 (A) (A) (A) (A) (A) (A) (A) (A) (A) (A) (A) (A)
                 (A) (A) (A) (A) (A) (A) (A) (A) (A) (A) (A) (A)
                 (A) (A) (A) (A) (A) (A) (A) (A) (A) (A) (A) (A)
                 (A) (A) (A) (A) (A) (A) (A) (A) (A) (A) (A) (A)
                 (A) (A) (A) (A) (A) (A) (A) (A) (A) (A) (A) (A)
                 (A) (A) (A) (A) (A) (A) (A) (A) (A) (A) (A) (A)
                 (A) (A) (A) (A) (A) (A) (A) (A) (A) (A) (A) (A)
                 (A) (A) (A) (A) (A) (A) (A) (A) (A) (A) (A) (A)
                 (A) (A) (A) (A) (A) (A) (A) (A) (A) (A) (A) (A)
                 (A) (A) (A) (A) (A) (A) (A) (A) (A) (A) (A) (A)
                 (A) (A) (A) (A) (A) (A) (A) (A) (A) (A) (A) (A)
                 (A) (A) (A) (A) (A) (A) (A) (A) (A) (A) (A) (A)
                 (A) (A) (A) (A) (A) (A) (A) (A) (A) (A) (A) (A)
                 (A) (A) (A) (A) (A) (A) (A) (A) (A) (A) (A) (A)
                 (A) (A) (A) (A) (A) (A) (A) (A) (A) (A) (A) (A)
                 (A) (A) (A) (A) (A) (A) (A) (A) (A) (A) (A) (A)
                 (A) (A) (A) (A) (A) (A) (A) (A) (A) (A) (A) (A)
                 (A) (A) (A) (A) (A) (A) (A) (A) (A) (A) (A) (A)
                 (A) (A) (A) (A) (A) (A) (A) (A) (A) (A) (A) (A)
                 (A) (A) (A) (A) (A) (A) (A) (A) (A) (A) (A) (A)
                 (A) (A) (A) (A) (A) (A) (A) (A) (A) (A) (A) (A)
                 (A) (A) (A) (A) (A) (A) (A) (A) (A) (A) (A) (A)
                 (A) (A) (A) (A) (A) (A) (A) (A) (A) (A) (A) (A)
                 (A) (A) (A) (A) (A) (A) (A) (A) (A) (A) (A) (A)
                 (A) (A) (A) (A) (A) (A) (A) (A) (A) (A) (A) (A)
                 (A) (A) (A) (A) (A) (A) (A) (A) (A) (A) (A) (A)
                 (A) (A) (A) (A) (A) (A) (A) (A) (A) (A) (A) (A)
                 (A) (A) (A) (A) (A) (A) (A)
 The electronic state is 1-A.
 Alpha  occ. eigenvalues --  -19.19001 -19.14578 -14.28823 -10.34117 -10.23255
 Alpha  occ. eigenvalues --  -10.20916 -10.20537 -10.19759 -10.16704 -10.16499
 Alpha  occ. eigenvalues --  -10.16463 -10.16398 -10.15604 -10.15501 -10.14766
 Alpha  occ. eigenvalues --   -1.12937  -1.05056  -0.91281  -0.85735  -0.82746
 Alpha  occ. eigenvalues --   -0.76853  -0.74141  -0.72926  -0.69530  -0.67541
 Alpha  occ. eigenvalues --   -0.62513  -0.61261  -0.59752  -0.54964  -0.53502
 Alpha  occ. eigenvalues --   -0.52634  -0.50981  -0.50196  -0.48657  -0.47513
 Alpha  occ. eigenvalues --   -0.45905  -0.44508  -0.43857  -0.43700  -0.43053
 Alpha  occ. eigenvalues --   -0.41506  -0.40599  -0.39744  -0.39183  -0.37324
 Alpha  occ. eigenvalues --   -0.36193  -0.35452  -0.34388  -0.33384  -0.31934
 Alpha  occ. eigenvalues --   -0.30872  -0.30291  -0.25235  -0.23719  -0.18100
 Alpha virt. eigenvalues --   -0.06918  -0.02995  -0.02325  -0.01804  -0.01089
 Alpha virt. eigenvalues --   -0.00453   0.00259   0.00754   0.01161   0.01583
 Alpha virt. eigenvalues --    0.02396   0.02736   0.03491   0.04133   0.04394
 Alpha virt. eigenvalues --    0.04921   0.05225   0.05525   0.05948   0.06704
 Alpha virt. eigenvalues --    0.07053   0.07597   0.08297   0.08446   0.08527
 Alpha virt. eigenvalues --    0.09204   0.09728   0.10183   0.10610   0.10838
 Alpha virt. eigenvalues --    0.10964   0.11163   0.11538   0.11996   0.12210
 Alpha virt. eigenvalues --    0.12472   0.12626   0.12882   0.13260   0.13489
 Alpha virt. eigenvalues --    0.13768   0.14688   0.14852   0.15055   0.15310
 Alpha virt. eigenvalues --    0.15630   0.15998   0.16181   0.16719   0.17025
 Alpha virt. eigenvalues --    0.17205   0.17591   0.18111   0.18238   0.18661
 Alpha virt. eigenvalues --    0.19173   0.19363   0.19579   0.20135   0.20287
 Alpha virt. eigenvalues --    0.21292   0.21420   0.21717   0.22081   0.22310
 Alpha virt. eigenvalues --    0.22395   0.23574   0.24021   0.24244   0.24842
 Alpha virt. eigenvalues --    0.25202   0.25500   0.25929   0.26164   0.26350
 Alpha virt. eigenvalues --    0.26465   0.27413   0.27883   0.28209   0.28653
 Alpha virt. eigenvalues --    0.29327   0.29656   0.29972   0.30688   0.31405
 Alpha virt. eigenvalues --    0.31577   0.32441   0.32495   0.32866   0.33611
 Alpha virt. eigenvalues --    0.33912   0.34138   0.34757   0.35352   0.36134
 Alpha virt. eigenvalues --    0.36476   0.36645   0.37664   0.37812   0.39265
 Alpha virt. eigenvalues --    0.40544   0.41130   0.41436   0.42712   0.43698
 Alpha virt. eigenvalues --    0.45377   0.46240   0.48236   0.50537   0.51140
 Alpha virt. eigenvalues --    0.52387   0.52851   0.53286   0.53929   0.54905
 Alpha virt. eigenvalues --    0.55498   0.55715   0.56984   0.57818   0.58004
 Alpha virt. eigenvalues --    0.58644   0.59505   0.59799   0.61451   0.61728
 Alpha virt. eigenvalues --    0.62535   0.63050   0.63428   0.64306   0.64809
 Alpha virt. eigenvalues --    0.65424   0.65820   0.66460   0.67196   0.68121
 Alpha virt. eigenvalues --    0.68430   0.69166   0.70422   0.70917   0.71399
 Alpha virt. eigenvalues --    0.72045   0.72462   0.73473   0.73631   0.74503
 Alpha virt. eigenvalues --    0.75731   0.76063   0.76437   0.77860   0.78466
 Alpha virt. eigenvalues --    0.79539   0.80075   0.80806   0.82261   0.82952
 Alpha virt. eigenvalues --    0.84305   0.84947   0.87449   0.87694   0.88673
 Alpha virt. eigenvalues --    0.89041   0.89689   0.91551   0.91810   0.92639
 Alpha virt. eigenvalues --    0.93304   0.94722   0.94863   0.96439   0.98356
 Alpha virt. eigenvalues --    1.00097   1.02070   1.02678   1.05034   1.06261
 Alpha virt. eigenvalues --    1.06577   1.07605   1.08369   1.08872   1.10167
 Alpha virt. eigenvalues --    1.10996   1.14149   1.15331   1.16224   1.17924
 Alpha virt. eigenvalues --    1.19514   1.19793   1.21247   1.22879   1.24759
 Alpha virt. eigenvalues --    1.27933   1.30398   1.31335   1.33763   1.34907
 Alpha virt. eigenvalues --    1.37482   1.41074   1.42146   1.43315   1.45161
 Alpha virt. eigenvalues --    1.45561   1.46915   1.48612   1.49637   1.50184
 Alpha virt. eigenvalues --    1.51009   1.52030   1.52785   1.55049   1.55198
 Alpha virt. eigenvalues --    1.56759   1.57535   1.58492   1.58745   1.60565
 Alpha virt. eigenvalues --    1.61108   1.61783   1.63529   1.64123   1.64494
 Alpha virt. eigenvalues --    1.64855   1.67373   1.67534   1.69909   1.70186
 Alpha virt. eigenvalues --    1.71911   1.72829   1.74482   1.76242   1.79050
 Alpha virt. eigenvalues --    1.79679   1.81045   1.81263   1.82025   1.84694
 Alpha virt. eigenvalues --    1.84865   1.85970   1.87204   1.88746   1.90553
 Alpha virt. eigenvalues --    1.90968   1.92091   1.92392   1.93569   1.95230
 Alpha virt. eigenvalues --    1.97690   1.98238   2.00801   2.02139   2.02766
 Alpha virt. eigenvalues --    2.04328   2.05913   2.06134   2.06741   2.08395
 Alpha virt. eigenvalues --    2.11478   2.13087   2.13938   2.14729   2.15745
 Alpha virt. eigenvalues --    2.16484   2.19157   2.20378   2.24331   2.26919
 Alpha virt. eigenvalues --    2.28992   2.30354   2.30686   2.31174   2.35620
 Alpha virt. eigenvalues --    2.37061   2.41600   2.43637   2.46617   2.47000
 Alpha virt. eigenvalues --    2.48944   2.51586   2.53580   2.53833   2.54990
 Alpha virt. eigenvalues --    2.55590   2.59183   2.61807   2.62611   2.63121
 Alpha virt. eigenvalues --    2.63504   2.64059   2.64894   2.68595   2.69349
 Alpha virt. eigenvalues --    2.70810   2.71779   2.72467   2.72899   2.73667
 Alpha virt. eigenvalues --    2.74556   2.75608   2.76419   2.78307   2.79412
 Alpha virt. eigenvalues --    2.80576   2.81355   2.81809   2.84188   2.84498
 Alpha virt. eigenvalues --    2.85079   2.86476   2.88126   2.89265   2.89891
 Alpha virt. eigenvalues --    2.91825   2.92137   2.94429   2.95223   2.95977
 Alpha virt. eigenvalues --    2.99158   3.00599   3.03050   3.05615   3.08045
 Alpha virt. eigenvalues --    3.10475   3.12310   3.17135   3.17608   3.20654
 Alpha virt. eigenvalues --    3.22939   3.28809   3.31131   3.35109   3.35856
 Alpha virt. eigenvalues --    3.36270   3.42994   3.47045   3.50276   3.51948
 Alpha virt. eigenvalues --    3.54258   3.55931   3.59494   3.62819   3.67965
 Alpha virt. eigenvalues --    3.73970   3.77062   3.79778   3.89656   3.91190
 Alpha virt. eigenvalues --    3.91402   4.00905   4.04528   4.08171   4.09662
 Alpha virt. eigenvalues --    4.15879   4.20313   4.21883   4.28767   4.48061
 Alpha virt. eigenvalues --    4.79559   4.83319   4.97163   5.05774   5.14808
 Alpha virt. eigenvalues --    5.19755   5.34282   5.59061   5.88144  23.65089
 Alpha virt. eigenvalues --   23.67654  23.82639  23.85115  23.91426  23.94136
 Alpha virt. eigenvalues --   23.98259  24.05924  24.07644  24.16077  24.23385
 Alpha virt. eigenvalues --   24.25904  35.74722  49.87204  49.97837
          Condensed to atoms (all electrons):
               1          2          3          4          5          6
     1  C    6.372845  -0.198300  -0.198529  -0.736807   0.105639   0.003003
     2  C   -0.198300   6.102962   0.060599  -0.413985  -0.014187  -0.055713
     3  C   -0.198529   0.060599   6.076102  -0.417925   0.005737   0.106559
     4  C   -0.736807  -0.413985  -0.417925   7.829761   0.190784   0.002648
     5  O    0.105639  -0.014187   0.005737   0.190784   8.120674  -0.106276
     6  O    0.003003  -0.055713   0.106559   0.002648  -0.106276   7.973298
     7  H    0.329176  -0.009435   0.014416   0.018488  -0.005150   0.005540
     8  H    0.434771  -0.046058  -0.014265  -0.011685  -0.005123  -0.003860
     9  H    0.358021  -0.037076   0.032884  -0.007793   0.002680   0.002187
    10  H    0.010713  -0.055091   0.395532   0.012032  -0.000627  -0.000908
    11  H    0.029052  -0.028042   0.388353  -0.096733   0.006327   0.015118
    12  H    0.029918   0.005488  -0.077519   0.087716   0.019121   0.183895
    13  C    0.000466  -0.000057   0.000019  -0.000434   0.000008   0.000000
    14  C   -0.000048  -0.000773   0.001675  -0.000214  -0.000035   0.000011
    15  C   -0.010061   0.000059  -0.000232   0.014615  -0.001155   0.000038
    16  C   -0.029556   0.042703   0.026627  -0.045437   0.027411   0.001664
    17  C   -0.170883   0.051486  -0.037762   0.229702  -0.056910   0.003224
    18  C    0.190651  -0.069732   0.015192  -0.154688  -0.011442  -0.000763
    19  C    0.044449  -0.011651   0.012139  -0.076678   0.037036  -0.000414
    20  C    0.001959   0.001639  -0.005558   0.000507   0.001056  -0.000178
    21  N   -0.023229   0.004016   0.001133   0.029326   0.013988  -0.000403
    22  H    0.000004  -0.000007   0.000000   0.000002  -0.000001  -0.000000
    23  H   -0.000005   0.000012  -0.000004  -0.000003   0.000009   0.000000
    24  H   -0.000255   0.000017  -0.000023   0.000304  -0.000018  -0.000001
    25  H    0.001867   0.002756  -0.001466  -0.003749   0.000495   0.000094
    26  H   -0.019980   0.011703   0.006000   0.018173  -0.002819  -0.000291
    27  H    0.000318  -0.000049   0.000262  -0.000591   0.000569   0.000057
    28  H    0.000015   0.000118  -0.000050  -0.000078  -0.000149  -0.000004
    29  H    0.001013  -0.047046  -0.024193   0.036085   0.003845  -0.017342
    30  H   -0.000219   0.002341   0.001231  -0.000295   0.001288   0.000825
               7          8          9         10         11         12
     1  C    0.329176   0.434771   0.358021   0.010713   0.029052   0.029918
     2  C   -0.009435  -0.046058  -0.037076  -0.055091  -0.028042   0.005488
     3  C    0.014416  -0.014265   0.032884   0.395532   0.388353  -0.077519
     4  C    0.018488  -0.011685  -0.007793   0.012032  -0.096733   0.087716
     5  O   -0.005150  -0.005123   0.002680  -0.000627   0.006327   0.019121
     6  O    0.005540  -0.003860   0.002187  -0.000908   0.015118   0.183895
     7  H    0.523228  -0.051577  -0.008906   0.000159  -0.003246  -0.001570
     8  H   -0.051577   0.537319  -0.026771   0.006202  -0.000679  -0.000781
     9  H   -0.008906  -0.026771   0.522434   0.001526   0.000288   0.000603
    10  H    0.000159   0.006202   0.001526   0.495310  -0.014527  -0.000829
    11  H   -0.003246  -0.000679   0.000288  -0.014527   0.496242   0.001087
    12  H   -0.001570  -0.000781   0.000603  -0.000829   0.001087   0.490510
    13  C   -0.000037  -0.000031   0.000010   0.000009   0.000009  -0.000001
    14  C   -0.000167   0.000272   0.000109   0.000015  -0.000066   0.000003
    15  C    0.000371  -0.000421   0.000416  -0.000392  -0.000576   0.000017
    16  C   -0.001702  -0.008506   0.005262  -0.000709  -0.002159  -0.000328
    17  C    0.018841  -0.015215  -0.000875  -0.001399  -0.009708  -0.001009
    18  C   -0.019722   0.030286  -0.004402   0.003160   0.011952   0.000678
    19  C   -0.008347   0.006897  -0.000186   0.000741   0.002480  -0.000150
    20  C    0.001638  -0.001457  -0.000187  -0.000035   0.000320   0.000017
    21  N    0.010144  -0.007382  -0.000563  -0.000167  -0.001892   0.000191
    22  H    0.000002   0.000000  -0.000000   0.000000  -0.000000   0.000000
    23  H   -0.000000  -0.000003   0.000000  -0.000000   0.000000   0.000000
    24  H    0.000034  -0.000048  -0.000001  -0.000010  -0.000016   0.000001
    25  H    0.000326   0.001015  -0.000262   0.000124   0.000335   0.000008
    26  H    0.002669  -0.014878   0.002093  -0.001110  -0.002219  -0.000377
    27  H   -0.000195   0.000119   0.000018   0.000000   0.000030  -0.000003
    28  H    0.000075  -0.000056  -0.000006   0.000003  -0.000001  -0.000000
    29  H   -0.003381   0.001198  -0.000462  -0.000491   0.000040   0.005086
    30  H    0.000585  -0.000182   0.000006   0.000031  -0.000141  -0.000208
              13         14         15         16         17         18
     1  C    0.000466  -0.000048  -0.010061  -0.029556  -0.170883   0.190651
     2  C   -0.000057  -0.000773   0.000059   0.042703   0.051486  -0.069732
     3  C    0.000019   0.001675  -0.000232   0.026627  -0.037762   0.015192
     4  C   -0.000434  -0.000214   0.014615  -0.045437   0.229702  -0.154688
     5  O    0.000008  -0.000035  -0.001155   0.027411  -0.056910  -0.011442
     6  O    0.000000   0.000011   0.000038   0.001664   0.003224  -0.000763
     7  H   -0.000037  -0.000167   0.000371  -0.001702   0.018841  -0.019722
     8  H   -0.000031   0.000272  -0.000421  -0.008506  -0.015215   0.030286
     9  H    0.000010   0.000109   0.000416   0.005262  -0.000875  -0.004402
    10  H    0.000009   0.000015  -0.000392  -0.000709  -0.001399   0.003160
    11  H    0.000009  -0.000066  -0.000576  -0.002159  -0.009708   0.011952
    12  H   -0.000001   0.000003   0.000017  -0.000328  -0.001009   0.000678
    13  C    5.610215  -0.282788   0.249766  -0.197547   0.019136  -0.022836
    14  C   -0.282788  10.084785  -3.214323   0.579324  -0.543008   0.113890
    15  C    0.249766  -3.214323  11.017178  -0.559654  -0.104005  -0.835656
    16  C   -0.197547   0.579324  -0.559654  13.394178  -1.896280  -2.294503
    17  C    0.019136  -0.543008  -0.104005  -1.896280  11.501221  -1.432593
    18  C   -0.022836   0.113890  -0.835656  -2.294503  -1.432593  11.184358
    19  C    0.001838  -0.140813  -0.535916   2.364338  -4.509225   0.250029
    20  C    0.466158  -1.093968  -0.633104  -5.603344   1.952738  -0.161371
    21  N   -0.003476   0.004778  -0.019548   0.080550   0.292709  -0.272533
    22  H    0.378829   0.026511  -0.030799  -0.009022   0.004529   0.001866
    23  H    0.359153   0.025896  -0.100399   0.010935  -0.002484  -0.002038
    24  H   -0.054695   0.397677  -0.043517  -0.041598   0.024679  -0.011268
    25  H    0.026866  -0.079677  -0.075210   0.227538  -0.105320   0.200216
    26  H   -0.008220   0.059437  -0.034359   0.160577   0.786567  -0.501230
    27  H   -0.000119  -0.000391   0.072860   0.047528  -0.113405  -0.120730
    28  H    0.040879  -0.002010  -0.186530  -0.088577   0.066652   0.002860
    29  H    0.000343  -0.005780   0.021726  -0.037914  -0.081682  -0.045427
    30  H    0.000015   0.000232  -0.009711  -0.012227   0.059480   0.006604
              19         20         21         22         23         24
     1  C    0.044449   0.001959  -0.023229   0.000004  -0.000005  -0.000255
     2  C   -0.011651   0.001639   0.004016  -0.000007   0.000012   0.000017
     3  C    0.012139  -0.005558   0.001133   0.000000  -0.000004  -0.000023
     4  C   -0.076678   0.000507   0.029326   0.000002  -0.000003   0.000304
     5  O    0.037036   0.001056   0.013988  -0.000001   0.000009  -0.000018
     6  O   -0.000414  -0.000178  -0.000403  -0.000000   0.000000  -0.000001
     7  H   -0.008347   0.001638   0.010144   0.000002  -0.000000   0.000034
     8  H    0.006897  -0.001457  -0.007382   0.000000  -0.000003  -0.000048
     9  H   -0.000186  -0.000187  -0.000563  -0.000000   0.000000  -0.000001
    10  H    0.000741  -0.000035  -0.000167   0.000000  -0.000000  -0.000010
    11  H    0.002480   0.000320  -0.001892  -0.000000   0.000000  -0.000016
    12  H   -0.000150   0.000017   0.000191   0.000000   0.000000   0.000001
    13  C    0.001838   0.466158  -0.003476   0.378829   0.359153  -0.054695
    14  C   -0.140813  -1.093968   0.004778   0.026511   0.025896   0.397677
    15  C   -0.535916  -0.633104  -0.019548  -0.030799  -0.100399  -0.043517
    16  C    2.364338  -5.603344   0.080550  -0.009022   0.010935  -0.041598
    17  C   -4.509225   1.952738   0.292709   0.004529  -0.002484   0.024679
    18  C    0.250029  -0.161371  -0.272533   0.001866  -0.002038  -0.011268
    19  C   10.837040  -1.606384  -0.339956  -0.010467   0.006900  -0.033809
    20  C   -1.606384  13.067631  -0.053654   0.003410   0.035049   0.041193
    21  N   -0.339956  -0.053654   7.012903  -0.000031   0.000193   0.000603
    22  H   -0.010467   0.003410  -0.000031   0.546099  -0.037290  -0.014130
    23  H    0.006900   0.035049   0.000193  -0.037290   0.581025   0.015048
    24  H   -0.033809   0.041193   0.000603  -0.014130   0.015048   0.569490
    25  H    0.090473   0.016868  -0.011444  -0.000823   0.001314  -0.002810
    26  H   -0.207072  -0.025671   0.069115   0.000038   0.000149   0.004454
    27  H    0.526718  -0.099237  -0.001742  -0.000280   0.000316  -0.000145
    28  H   -0.130046   0.612962  -0.004440   0.000422   0.004450   0.001511
    29  H    0.046843   0.022665   0.295297  -0.000020   0.000050  -0.000066
    30  H   -0.082155   0.024539   0.355550   0.000010  -0.000033   0.000010
              25         26         27         28         29         30
     1  C    0.001867  -0.019980   0.000318   0.000015   0.001013  -0.000219
     2  C    0.002756   0.011703  -0.000049   0.000118  -0.047046   0.002341
     3  C   -0.001466   0.006000   0.000262  -0.000050  -0.024193   0.001231
     4  C   -0.003749   0.018173  -0.000591  -0.000078   0.036085  -0.000295
     5  O    0.000495  -0.002819   0.000569  -0.000149   0.003845   0.001288
     6  O    0.000094  -0.000291   0.000057  -0.000004  -0.017342   0.000825
     7  H    0.000326   0.002669  -0.000195   0.000075  -0.003381   0.000585
     8  H    0.001015  -0.014878   0.000119  -0.000056   0.001198  -0.000182
     9  H   -0.000262   0.002093   0.000018  -0.000006  -0.000462   0.000006
    10  H    0.000124  -0.001110   0.000000   0.000003  -0.000491   0.000031
    11  H    0.000335  -0.002219   0.000030  -0.000001   0.000040  -0.000141
    12  H    0.000008  -0.000377  -0.000003  -0.000000   0.005086  -0.000208
    13  C    0.026866  -0.008220  -0.000119   0.040879   0.000343   0.000015
    14  C   -0.079677   0.059437  -0.000391  -0.002010  -0.005780   0.000232
    15  C   -0.075210  -0.034359   0.072860  -0.186530   0.021726  -0.009711
    16  C    0.227538   0.160577   0.047528  -0.088577  -0.037914  -0.012227
    17  C   -0.105320   0.786567  -0.113405   0.066652  -0.081682   0.059480
    18  C    0.200216  -0.501230  -0.120730   0.002860  -0.045427   0.006604
    19  C    0.090473  -0.207072   0.526718  -0.130046   0.046843  -0.082155
    20  C    0.016868  -0.025671  -0.099237   0.612962   0.022665   0.024539
    21  N   -0.011444   0.069115  -0.001742  -0.004440   0.295297   0.355550
    22  H   -0.000823   0.000038  -0.000280   0.000422  -0.000020   0.000010
    23  H    0.001314   0.000149   0.000316   0.004450   0.000050  -0.000033
    24  H   -0.002810   0.004454  -0.000145   0.001511  -0.000066   0.000010
    25  H    0.628974  -0.067856   0.001122  -0.002050  -0.000272   0.000314
    26  H   -0.067856   0.752403  -0.006869   0.002770  -0.013424   0.002060
    27  H    0.001122  -0.006869   0.562642  -0.030138   0.001673  -0.008523
    28  H   -0.002050   0.002770  -0.030138   0.612856  -0.000767   0.001892
    29  H   -0.000272  -0.013424   0.001673  -0.000767   0.413148  -0.042375
    30  H    0.000314   0.002060  -0.008523   0.001892  -0.042375   0.474691
 Mulliken charges:
               1
     1  C   -0.526008
     2  C    0.701303
     3  C   -0.366935
     4  C   -0.503046
     5  O   -0.332777
     6  O   -0.112010
     7  H    0.187741
     8  H    0.190899
     9  H    0.158952
    10  H    0.150736
    11  H    0.208372
    12  H    0.258436
    13  C   -0.583478
    14  C    0.069445
    15  C    1.018521
    16  C   -0.139573
    17  C    0.070799
    18  C   -0.050809
    19  C   -0.534650
    20  C   -0.966199
    21  N   -0.430036
    22  H    0.141150
    23  H    0.101759
    24  H    0.147389
    25  H    0.150235
    26  H    0.028166
    27  H    0.168187
    28  H    0.097438
    29  H    0.471629
    30  H    0.224366
 Sum of Mulliken charges =  -0.00000
 Mulliken charges with hydrogens summed into heavy atoms:
               1
     1  C    0.011584
     2  C    0.701303
     3  C   -0.007827
     4  C   -0.503046
     5  O   -0.332777
     6  O    0.146426
    13  C   -0.340569
    14  C    0.216834
    15  C    1.018521
    16  C    0.010661
    17  C    0.098965
    18  C   -0.050809
    19  C   -0.366463
    20  C   -0.868761
    21  N    0.265959
 DipInt: DoE/N= T F RetVal/Mat= T F Init=T NMatP=  1 IDeriv=0 Min/MaxMlt=  0  4
 Entering OneElI...
 OneElI was handed 25769286557 working-precision words.
 Multipole integrals L=0 to 4 MinM= 0 MaxM= 0.
 Requested accuracy = 0.1000D-12
 ShPair: Thresh= 1.00D-13 NBox=     0 BxSize= 0.00D+00 RnKept= 2.32D+01
         NSMCal=                13695 NSMKep=               11204
 PrmmSu-InSpLW:  IPartL=    0 NPrtUS=    1 NPrtUL=    1 DoSpLW=F IThBeg=    0 IThEnd=    0 NThAct=    1.
 PrsmSu:  NPrtUS=   1 ThrOK=F IAlg=1 NPAlg=1 LenDen=           0 ISkipM=0 DoSpLW=F IThBeg=    0 IThEnd=    0.
 Prism:   IPart=     0 DynPar=F LinDyn=F Incr=         112.
 PRISM was handed 25768552233 working-precision words and 11204 shell-pairs
 IPart=  0 NShTot=       11204 NBatch=         110 AvBLen=       101.9
 PrsmSu-ThDecC:  IPartSL=    0    0 NPrtUSL=    1    1 IThBeg=    0 IThEnd=    0 CPU=   -1 GPU=   -1 NThAct=    1.
 PrSmSu:  NxtVal=            113.
 Electronic moments (au):
       -110.00000000         -2.53419963         -1.13836078          0.55823505
      -4824.19581397       -762.08786135       -207.11704547         10.18410887
         -1.61879575          3.87533089      -3703.53561131       -124.60732844
       -168.25138787        181.03619800       4010.81385745       1179.84498231
        765.22372268        315.72246054        -82.63125178       -549.94201990
    -353960.95994798     -10564.23121681      -1826.25081125      19976.91162522
      -3373.17942781      -3189.32593154       -354.36885255        976.78707022
        476.38608888     -30658.77657678     -10007.46103986      -1880.31740623
         80.38302591        362.65888876      -1999.07644933
 Electronic spatial extent (au):  <R**2>=           5793.4007
 DipInt: DoE/N= F T RetVal/Mat= T F Init=T NMatP=  1 IDeriv=0 Min/MaxMlt=  0  4
 Nuclear    moments (au):
        110.00000000          0.00000000         -0.00000000         -0.00000000
       4769.31117689        698.07502476        137.86565858         -0.00000000
         -0.00000000         -0.00000000       3418.56287361        130.82898004
        167.71004834       -189.90763997      -4053.17050607      -1173.13911117
       -817.02854719       -312.79342539         91.56512384        553.27283930
     338017.45518291       7992.57007690       1053.19544737     -19521.99835729
       3441.25455398       3319.09619543        467.04411694       -927.48922048
       -473.53244183      27362.58082915       6807.76310456       1291.29402069
         66.12261033       -423.59866277       2024.12997727
 Total      moments (au):
         -0.00000000         -2.53419963         -1.13836078          0.55823505
        -54.88463708        -64.01283658        -69.25138689         10.18410887
         -1.61879575          3.87533089       -284.97273771          6.22165159
         -0.54133953         -8.87144197        -42.35664862          6.70587113
        -51.80482450          2.92903515          8.93387206          3.33081941
     -15943.50476507      -2571.66113991       -773.05536387        454.91326794
         68.07512617        129.77026390        112.67526439         49.29784974
          2.85364706      -3296.19574763      -3199.69793530       -589.02338554
        146.50563624        -60.93977401         25.05352794
 Traceless Quadrup. (au):
          7.83164977         -1.29654973         -6.53510004         10.18410887
         -1.61879575          3.87533089
 Charge=             -0.0000 electrons
 Dipole moment (field-independent basis, Debye):
    X=             -6.4413    Y=             -2.8934    Z=              1.4189  Tot=              7.2025
 Quadrupole moment (field-independent basis, Debye-Ang):
   XX=            -73.8217   YY=            -86.0995   ZZ=            -93.1455
   XY=             13.6980   XZ=             -2.1773   YZ=              5.2125
 Traceless Quadrupole moment (field-independent basis, Debye-Ang):
   XX=             10.5338   YY=             -1.7439   ZZ=             -8.7899
   XY=             13.6980   XZ=             -2.1773   YZ=              5.2125
 Octapole moment (field-independent basis, Debye-Ang**2):
  XXX=           -202.8326  YYY=              4.4283  ZZZ=             -0.3853  XYY=             -6.3144
  XXY=            -30.1478  XXZ=              4.7730  XZZ=            -36.8727  YZZ=              2.0848
  YYZ=              6.3588  XYZ=              2.3707
 Hexadecapole moment (field-independent basis, Debye-Ang**3):
 XXXX=          -6005.0884 YYYY=           -968.6109 ZZZZ=           -291.1697 XXXY=            171.3422
 XXXZ=             25.6404 YYYX=             48.8777 YYYZ=             42.4389 ZZZX=             18.5679
 ZZZY=              1.0748 XXYY=          -1241.5054 XXZZ=          -1205.1597 YYZZ=           -221.8545
 XXYZ=             55.1810 YYXZ=            -22.9528 ZZXY=              9.4364
 N-N= 8.806388417627D+02 E-N=-3.326513739012D+03  KE= 6.689189462902D+02
 Entering OneElI...
 OneElI was handed 25769400092 working-precision words.
 Calculate electrostatic properties
    NBasis =   435  MinDer = 0  MaxDer = 0
    NGrid  =    30  NMatD  =   1
 Requested accuracy = 0.1000D-12
 ShPair: Thresh= 1.00D-13 NBox=     0 BxSize= 0.00D+00 RnKept= 2.32D+01
         NSMCal=                13695 NSMKep=               10313
 PrmmSu-InSpLW:  IPartL=    0 NPrtUS=   48 NPrtUL=    1 DoSpLW=F IThBeg=    0 IThEnd=   47 NThAct=   48.
 PrsmSu:  NPrtUS=  48 ThrOK=T IAlg=1 NPAlg=1 LenDen=           0 ISkipM=0 DoSpLW=F IThBeg=    0 IThEnd=   47.
 Prism:   IPart=     0 DynPar=F LinDyn=F Incr=          64.
 PRISM was handed   536651323 working-precision words and 10313 shell-pairs
 PRISM was handed   536651323 working-precision words and 10313 shell-pairs
 PRISM was handed   536651323 working-precision words and 10313 shell-pairs
 PRISM was handed   536651323 working-precision words and 10313 shell-pairs
 PRISM was handed   536651323 working-precision words and 10313 shell-pairs
 PRISM was handed   536651323 working-precision words and 10313 shell-pairs
 PRISM was handed   536651323 working-precision words and 10313 shell-pairs
 PRISM was handed   536651323 working-precision words and 10313 shell-pairs
 PRISM was handed   536651323 working-precision words and 10313 shell-pairs
 PRISM was handed   536651323 working-precision words and 10313 shell-pairs
 PRISM was handed   536651323 working-precision words and 10313 shell-pairs
 PRISM was handed   536651323 working-precision words and 10313 shell-pairs
 PRISM was handed   536651323 working-precision words and 10313 shell-pairs
 PRISM was handed   536651323 working-precision words and 10313 shell-pairs
 PRISM was handed   536651323 working-precision words and 10313 shell-pairs
 PRISM was handed   536651323 working-precision words and 10313 shell-pairs
 PRISM was handed   536651323 working-precision words and 10313 shell-pairs
 PRISM was handed   536651323 working-precision words and 10313 shell-pairs
 PRISM was handed   536651323 working-precision words and 10313 shell-pairs
 PRISM was handed   536651323 working-precision words and 10313 shell-pairs
 PRISM was handed   536651323 working-precision words and 10313 shell-pairs
 PRISM was handed   536651323 working-precision words and 10313 shell-pairs
 PRISM was handed   536651323 working-precision words and 10313 shell-pairs
 PRISM was handed   536651323 working-precision words and 10313 shell-pairs
 PRISM was handed   536651323 working-precision words and 10313 shell-pairs
 PRISM was handed   536651323 working-precision words and 10313 shell-pairs
 PRISM was handed   536651323 working-precision words and 10313 shell-pairs
 PRISM was handed   536651323 working-precision words and 10313 shell-pairs
 PRISM was handed   536651323 working-precision words and 10313 shell-pairs
 PRISM was handed   536651323 working-precision words and 10313 shell-pairs
 PRISM was handed   536651323 working-precision words and 10313 shell-pairs
 PRISM was handed   536651323 working-precision words and 10313 shell-pairs
 PRISM was handed   536651323 working-precision words and 10313 shell-pairs
 PRISM was handed   536651323 working-precision words and 10313 shell-pairs
 PRISM was handed   536651323 working-precision words and 10313 shell-pairs
 PRISM was handed   536651323 working-precision words and 10313 shell-pairs
 PRISM was handed   536651323 working-precision words and 10313 shell-pairs
 PRISM was handed   536651323 working-precision words and 10313 shell-pairs
 PRISM was handed   536651323 working-precision words and 10313 shell-pairs
 PRISM was handed   536651323 working-precision words and 10313 shell-pairs
 PRISM was handed   536651323 working-precision words and 10313 shell-pairs
 PRISM was handed   536651323 working-precision words and 10313 shell-pairs
 PRISM was handed   536651323 working-precision words and 10313 shell-pairs
 PRISM was handed   536651323 working-precision words and 10313 shell-pairs
 PRISM was handed   536651323 working-precision words and 10313 shell-pairs
 PRISM was handed   536651323 working-precision words and 10313 shell-pairs
 PRISM was handed   536651323 working-precision words and 10313 shell-pairs
 PRISM was handed   536651323 working-precision words and 10313 shell-pairs
 IPart= 44 NShTot=        5910 NBatch=         197 AvBLen=        30.0
 PrsmSu-ThDecC:  IPartSL=   44    0 NPrtUSL=   48    1 IThBeg=    0 IThEnd=   47 CPU=   -1 GPU=   -1 NThAct=   48.
 IPart= 41 NShTot=        5970 NBatch=         199 AvBLen=        30.0
 IPart= 40 NShTot=        5970 NBatch=         199 AvBLen=        30.0
 PrsmSu-ThDecC:  IPartSL=   41    0 NPrtUSL=   48    1 IThBeg=    0 IThEnd=   47 CPU=   -1 GPU=   -1 NThAct=   47.
 PrsmSu-ThDecC:  IPartSL=   40    0 NPrtUSL=   48    1 IThBeg=    0 IThEnd=   47 CPU=   -1 GPU=   -1 NThAct=   46.
 IPart= 42 NShTot=        5970 NBatch=         199 AvBLen=        30.0
 PrsmSu-ThDecC:  IPartSL=   42    0 NPrtUSL=   48    1 IThBeg=    0 IThEnd=   47 CPU=   -1 GPU=   -1 NThAct=   45.
 IPart= 46 NShTot=        5910 NBatch=         197 AvBLen=        30.0
 PrsmSu-ThDecC:  IPartSL=   46    0 NPrtUSL=   48    1 IThBeg=    0 IThEnd=   47 CPU=   -1 GPU=   -1 NThAct=   44.
 IPart= 30 NShTot=        6180 NBatch=         206 AvBLen=        30.0
 PrsmSu-ThDecC:  IPartSL=   30    0 NPrtUSL=   48    1 IThBeg=    0 IThEnd=   47 CPU=   -1 GPU=   -1 NThAct=   43.
 IPart= 27 NShTot=        6270 NBatch=         209 AvBLen=        30.0
 IPart= 47 NShTot=        5880 NBatch=         196 AvBLen=        30.0
 PrsmSu-ThDecC:  IPartSL=   27    0 NPrtUSL=   48    1 IThBeg=    0 IThEnd=   47 CPU=   -1 GPU=   -1 NThAct=   42.
 IPart= 33 NShTot=        6180 NBatch=         206 AvBLen=        30.0
 IPart= 19 NShTot=        6420 NBatch=         214 AvBLen=        30.0
 PrsmSu-ThDecC:  IPartSL=   47    0 NPrtUSL=   48    1 IThBeg=    0 IThEnd=   47 CPU=   -1 GPU=   -1 NThAct=   41.
 IPart= 24 NShTot=        6270 NBatch=         209 AvBLen=        30.0
 IPart= 21 NShTot=        6360 NBatch=         212 AvBLen=        30.0
 IPart= 16 NShTot=        6510 NBatch=         217 AvBLen=        30.0
 IPart= 17 NShTot=        6450 NBatch=         215 AvBLen=        30.0
 IPart= 37 NShTot=        6030 NBatch=         201 AvBLen=        30.0
 IPart=  9 NShTot=        6930 NBatch=         231 AvBLen=        30.0
 IPart= 18 NShTot=        6420 NBatch=         214 AvBLen=        30.0
 IPart= 26 NShTot=        6270 NBatch=         209 AvBLen=        30.0
 PrsmSu-ThDecC:  IPartSL=   19    0 NPrtUSL=   48    1 IThBeg=    0 IThEnd=   47 CPU=   -1 GPU=   -1 NThAct=   40.
 IPart= 14 NShTot=        6750 NBatch=         225 AvBLen=        30.0
 PrsmSu-ThDecC:  IPartSL=   26    0 NPrtUSL=   48    1 IThBeg=    0 IThEnd=   47 CPU=   -1 GPU=   -1 NThAct=   39.
 PrsmSu-ThDecC:  IPartSL=    9    0 NPrtUSL=   48    1 IThBeg=    0 IThEnd=   47 CPU=   -1 GPU=   -1 NThAct=   38.
 PrsmSu-ThDecC:  IPartSL=   14    0 NPrtUSL=   48    1 IThBeg=    0 IThEnd=   47 CPU=   -1 GPU=   -1 NThAct=   37.
 PrsmSu-ThDecC:  IPartSL=   33    0 NPrtUSL=   48    1 IThBeg=    0 IThEnd=   47 CPU=   -1 GPU=   -1 NThAct=   36.
 PrsmSu-ThDecC:  IPartSL=   16    0 NPrtUSL=   48    1 IThBeg=    0 IThEnd=   47 CPU=   -1 GPU=   -1 NThAct=   35.
 IPart=  3 NShTot=        7140 NBatch=         238 AvBLen=        30.0
 PrsmSu-ThDecC:  IPartSL=   18    0 NPrtUSL=   48    1 IThBeg=    0 IThEnd=   47 CPU=   -1 GPU=   -1 NThAct=   34.
 IPart=  2 NShTot=        7260 NBatch=         242 AvBLen=        30.0
 PrsmSu-ThDecC:  IPartSL=    3    0 NPrtUSL=   48    1 IThBeg=    0 IThEnd=   47 CPU=   -1 GPU=   -1 NThAct=   33.
 PrsmSu-ThDecC:  IPartSL=   21    0 NPrtUSL=   48    1 IThBeg=    0 IThEnd=   47 CPU=   -1 GPU=   -1 NThAct=   32.
 PrsmSu-ThDecC:  IPartSL=    2    0 NPrtUSL=   48    1 IThBeg=    0 IThEnd=   47 CPU=   -1 GPU=   -1 NThAct=   31.
 PrsmSu-ThDecC:  IPartSL=   24    0 NPrtUSL=   48    1 IThBeg=    0 IThEnd=   47 CPU=   -1 GPU=   -1 NThAct=   30.
 PrsmSu-ThDecC:  IPartSL=   17    0 NPrtUSL=   48    1 IThBeg=    0 IThEnd=   47 CPU=   -1 GPU=   -1 NThAct=   29.
 PrsmSu-ThDecC:  IPartSL=   37    0 NPrtUSL=   48    1 IThBeg=    0 IThEnd=   47 CPU=   -1 GPU=   -1 NThAct=   28.
 IPart=  0 NShTot=        7500 NBatch=         250 AvBLen=        30.0
 PrsmSu-ThDecC:  IPartSL=    0    0 NPrtUSL=   48    1 IThBeg=    0 IThEnd=   47 CPU=   -1 GPU=   -1 NThAct=   27.
 IPart=  6 NShTot=        7050 NBatch=         235 AvBLen=        30.0
 PrsmSu-ThDecC:  IPartSL=    6    0 NPrtUSL=   48    1 IThBeg=    0 IThEnd=   47 CPU=   -1 GPU=   -1 NThAct=   26.
 IPart= 12 NShTot=        6810 NBatch=         227 AvBLen=        30.0
 PrsmSu-ThDecC:  IPartSL=   12    0 NPrtUSL=   48    1 IThBeg=    0 IThEnd=   47 CPU=   -1 GPU=   -1 NThAct=   25.
 IPart= 29 NShTot=        6210 NBatch=         207 AvBLen=        30.0
 PrsmSu-ThDecC:  IPartSL=   29    0 NPrtUSL=   48    1 IThBeg=    0 IThEnd=   47 CPU=   -1 GPU=   -1 NThAct=   24.
 IPart= 35 NShTot=        6060 NBatch=         202 AvBLen=        30.0
 PrsmSu-ThDecC:  IPartSL=   35    0 NPrtUSL=   48    1 IThBeg=    0 IThEnd=   47 CPU=   -1 GPU=   -1 NThAct=   23.
 IPart= 23 NShTot=        6330 NBatch=         211 AvBLen=        30.0
 PrsmSu-ThDecC:  IPartSL=   23    0 NPrtUSL=   48    1 IThBeg=    0 IThEnd=   47 CPU=   -1 GPU=   -1 NThAct=   22.
 IPart= 10 NShTot=        6900 NBatch=         230 AvBLen=        30.0
 PrsmSu-ThDecC:  IPartSL=   10    0 NPrtUSL=   48    1 IThBeg=    0 IThEnd=   47 CPU=   -1 GPU=   -1 NThAct=   21.
 IPart= 39 NShTot=        5970 NBatch=         199 AvBLen=        30.0
 PrsmSu-ThDecC:  IPartSL=   39    0 NPrtUSL=   48    1 IThBeg=    0 IThEnd=   47 CPU=   -1 GPU=   -1 NThAct=   20.
 IPart=  7 NShTot=        7050 NBatch=         235 AvBLen=        30.0
 PrsmSu-ThDecC:  IPartSL=    7    0 NPrtUSL=   48    1 IThBeg=    0 IThEnd=   47 CPU=   -1 GPU=   -1 NThAct=   19.
 IPart=  4 NShTot=        7110 NBatch=         237 AvBLen=        30.0
 PrsmSu-ThDecC:  IPartSL=    4    0 NPrtUSL=   48    1 IThBeg=    0 IThEnd=   47 CPU=   -1 GPU=   -1 NThAct=   18.
 IPart= 32 NShTot=        6180 NBatch=         206 AvBLen=        30.0
 PrsmSu-ThDecC:  IPartSL=   32    0 NPrtUSL=   48    1 IThBeg=    0 IThEnd=   47 CPU=   -1 GPU=   -1 NThAct=   17.
 IPart= 20 NShTot=        6390 NBatch=         213 AvBLen=        30.0
 PrsmSu-ThDecC:  IPartSL=   20    0 NPrtUSL=   48    1 IThBeg=    0 IThEnd=   47 CPU=   -1 GPU=   -1 NThAct=   16.
 IPart= 13 NShTot=        6810 NBatch=         227 AvBLen=        30.0
 PrsmSu-ThDecC:  IPartSL=   13    0 NPrtUSL=   48    1 IThBeg=    0 IThEnd=   47 CPU=   -1 GPU=   -1 NThAct=   15.
 IPart= 45 NShTot=        5910 NBatch=         197 AvBLen=        30.0
 PrsmSu-ThDecC:  IPartSL=   45    0 NPrtUSL=   48    1 IThBeg=    0 IThEnd=   47 CPU=   -1 GPU=   -1 NThAct=   14.
 IPart= 25 NShTot=        6270 NBatch=         209 AvBLen=        30.0
 PrsmSu-ThDecC:  IPartSL=   25    0 NPrtUSL=   48    1 IThBeg=    0 IThEnd=   47 CPU=   -1 GPU=   -1 NThAct=   13.
 IPart= 22 NShTot=        6330 NBatch=         211 AvBLen=        30.0
 PrsmSu-ThDecC:  IPartSL=   22    0 NPrtUSL=   48    1 IThBeg=    0 IThEnd=   47 CPU=   -1 GPU=   -1 NThAct=   12.
 IPart= 15 NShTot=        6540 NBatch=         218 AvBLen=        30.0
 PrsmSu-ThDecC:  IPartSL=   15    0 NPrtUSL=   48    1 IThBeg=    0 IThEnd=   47 CPU=   -1 GPU=   -1 NThAct=   11.
 IPart= 43 NShTot=        5970 NBatch=         199 AvBLen=        30.0
 PrsmSu-ThDecC:  IPartSL=   43    0 NPrtUSL=   48    1 IThBeg=    0 IThEnd=   47 CPU=   -1 GPU=   -1 NThAct=   10.
 IPart=  5 NShTot=        7080 NBatch=         236 AvBLen=        30.0
 PrsmSu-ThDecC:  IPartSL=    5    0 NPrtUSL=   48    1 IThBeg=    0 IThEnd=   47 CPU=   -1 GPU=   -1 NThAct=    9.
 IPart= 38 NShTot=        6000 NBatch=         200 AvBLen=        30.0
 PrsmSu-ThDecC:  IPartSL=   38    0 NPrtUSL=   48    1 IThBeg=    0 IThEnd=   47 CPU=   -1 GPU=   -1 NThAct=    8.
 IPart=  1 NShTot=        7350 NBatch=         245 AvBLen=        30.0
 PrsmSu-ThDecC:  IPartSL=    1    0 NPrtUSL=   48    1 IThBeg=    0 IThEnd=   47 CPU=   -1 GPU=   -1 NThAct=    7.
 IPart= 28 NShTot=        6270 NBatch=         209 AvBLen=        30.0
 IPart= 36 NShTot=        6030 NBatch=         201 AvBLen=        30.0
 PrsmSu-ThDecC:  IPartSL=   28    0 NPrtUSL=   48    1 IThBeg=    0 IThEnd=   47 CPU=   -1 GPU=   -1 NThAct=    6.
 PrsmSu-ThDecC:  IPartSL=   36    0 NPrtUSL=   48    1 IThBeg=    0 IThEnd=   47 CPU=   -1 GPU=   -1 NThAct=    5.
 IPart= 11 NShTot=        6900 NBatch=         230 AvBLen=        30.0
 PrsmSu-ThDecC:  IPartSL=   11    0 NPrtUSL=   48    1 IThBeg=    0 IThEnd=   47 CPU=   -1 GPU=   -1 NThAct=    4.
 IPart= 34 NShTot=        6150 NBatch=         205 AvBLen=        30.0
 PrsmSu-ThDecC:  IPartSL=   34    0 NPrtUSL=   48    1 IThBeg=    0 IThEnd=   47 CPU=   -1 GPU=   -1 NThAct=    3.
 IPart= 31 NShTot=        6180 NBatch=         206 AvBLen=        30.0
 PrsmSu-ThDecC:  IPartSL=   31    0 NPrtUSL=   48    1 IThBeg=    0 IThEnd=   47 CPU=   -1 GPU=   -1 NThAct=    2.
 IPart=  8 NShTot=        6990 NBatch=         233 AvBLen=        30.0
 PrsmSu-ThDecC:  IPartSL=    8    0 NPrtUSL=   48    1 IThBeg=    0 IThEnd=   47 CPU=   -1 GPU=   -1 NThAct=    1.
 PrSmSu:  NxtVal=           3073.
 --------------------------------------------------------
       Center         ----      EFG at Nuclei      ----
                      3XX-RR        3YY-RR        3ZZ-RR
 --------------------------------------------------------
     1   Atom        0.021153      0.058370     -0.079522
     2   Atom       -0.212835      0.060242      0.152593
     3   Atom       -0.254847      0.108553      0.146294
     4   Atom        0.077417      0.296603     -0.374020
     5   Atom       -0.162471      0.845837     -0.683365
     6   Atom       -1.567878      0.631976      0.935901
     7   Atom        0.085265     -0.057369     -0.027896
     8   Atom       -0.151013      0.016007      0.135006
     9   Atom       -0.106070      0.005267      0.100803
    10   Atom        0.138724     -0.296231      0.157507
    11   Atom        0.169923      0.005081     -0.175004
    12   Atom       -0.288939      0.042153      0.246786
    13   Atom        0.172387      0.011241     -0.183628
    14   Atom        0.227026      0.033608     -0.260634
    15   Atom        0.093306      0.108509     -0.201815
    16   Atom        0.181380      0.131925     -0.313304
    17   Atom        0.094626      0.091268     -0.185894
    18   Atom        0.130989      0.175219     -0.306209
    19   Atom        0.111093      0.068812     -0.179905
    20   Atom        0.142425      0.167288     -0.309713
    21   Atom       -0.374116     -0.154259      0.528375
    22   Atom       -0.150343     -0.003370      0.153713
    23   Atom        0.142753     -0.189538      0.046784
    24   Atom        0.134746     -0.229972      0.095225
    25   Atom        0.139959     -0.293645      0.153686
    26   Atom       -0.201557      0.024462      0.177095
    27   Atom        0.146359     -0.323722      0.177363
    28   Atom       -0.206558      0.031755      0.174803
    29   Atom       -0.300762      0.090738      0.210023
    30   Atom        0.167792     -0.150890     -0.016902
 --------------------------------------------------------
                        XY            XZ            YZ
 --------------------------------------------------------
     1   Atom        0.005936     -0.053862      0.089194
     2   Atom        0.069891      0.151763      0.077415
     3   Atom        0.091920      0.137012      0.005430
     4   Atom        0.217960      0.026545     -0.126481
     5   Atom       -1.007859      0.276547     -0.575100
     6   Atom        0.087403     -0.034069      0.362570
     7   Atom       -0.126871     -0.116806     -0.187493
     8   Atom        0.207520      0.067966     -0.044743
     9   Atom       -0.202736      0.108935      0.088500
    10   Atom       -0.121131     -0.005280     -0.009995
    11   Atom        0.013490     -0.035216      0.212673
    12   Atom       -0.325303      0.125676      0.098261
    13   Atom        0.016908      0.045401      0.142673
    14   Atom        0.024335      0.081235      0.156042
    15   Atom        0.000625      0.005276      0.044546
    16   Atom       -0.037833     -0.033754      0.058550
    17   Atom       -0.035364     -0.036226      0.078663
    18   Atom        0.141764     -0.035267      0.054094
    19   Atom        0.001299      0.011661      0.007570
    20   Atom        0.006610     -0.023473      0.026736
    21   Atom        0.160664     -0.033627     -0.679323
    22   Atom        0.225186      0.074055     -0.063724
    23   Atom       -0.054555     -0.037673     -0.216006
    24   Atom       -0.085023     -0.037077     -0.178301
    25   Atom       -0.071798     -0.014052     -0.104401
    26   Atom       -0.212657      0.031225      0.015128
    27   Atom       -0.040223      0.006097      0.034891
    28   Atom       -0.209160     -0.009701     -0.005917
    29   Atom       -0.183849     -0.023797     -0.041321
    30   Atom       -0.019344     -0.024093     -0.321320
 --------------------------------------------------------


 ---------------------------------------------------------------------------------
              Nuclear Quadrupole Coupling Constant in Principal Axis System
 ---------------------------------------------------------------------------------

       Atom             a.u.   MegaHertz   Gauss  10(-4) cm-1        Axes

              Baa    -0.6304     3.027     1.080     1.010 -0.4325  0.7832  0.4466
    21 N(14)  Bbb    -0.3266     1.569     0.560     0.523  0.8976  0.3272  0.2953
              Bcc     0.9570    -4.596    -1.640    -1.533 -0.0851 -0.5286  0.8446
 

 ---------------------------------------------------------------------------------

 No NMR shielding tensors so no spin-rotation constants.
 Leave Link  601 at Thu Apr 21 11:01:04 2022, MaxMem= 25769803776 cpu:               9.8 elap:               0.2
 Calling FoFJK, ICntrl=      2127 FMM=F ISym2X=0 I1Cent= 0 IOpClX= 0 NMat=1 NMatS=1 NMatT=0.
 ***** Axes restored to original set *****
 -------------------------------------------------------------------
 Center     Atomic                   Forces (Hartrees/Bohr)
 Number     Number              X              Y              Z
 -------------------------------------------------------------------
      1        6           0.027507052    0.006216257   -0.010483433
      2        6           0.007127324   -0.004324033    0.016162913
      3        6          -0.003728661    0.004820393   -0.007584995
      4        6          -0.010440068    0.038762856    0.022008709
      5        8          -0.018840878   -0.024190654   -0.024278427
      6        8           0.024263962    0.010402743    0.016018187
      7        1          -0.023227473    0.005035475   -0.001415520
      8        1          -0.000238097   -0.014907213   -0.007244369
      9        1          -0.000933293   -0.002799666    0.014270551
     10        1           0.002812446   -0.003154577    0.001351801
     11        1          -0.000379925   -0.004691069   -0.014852726
     12        1          -0.011967956   -0.013795899   -0.011291056
     13        6          -0.004935312   -0.013634687   -0.008022213
     14        6           0.015089643    0.011110759    0.024723309
     15        6          -0.044605300   -0.004960012   -0.027796256
     16        6           0.021881777    0.031157964    0.001136180
     17        6           0.028086348   -0.033230905    0.010576805
     18        6           0.005971257    0.004735155    0.013722135
     19        6           0.047556783   -0.042500927   -0.009274752
     20        6          -0.043899245    0.027359871    0.003456560
     21        7          -0.041075987    0.021501669   -0.005438143
     22        1           0.002383876   -0.000487921    0.001420805
     23        1           0.006586889    0.003224357    0.001095317
     24        1           0.000042848   -0.001105416   -0.003650956
     25        1           0.001867313   -0.008782905    0.005180209
     26        1          -0.010278482    0.013255988   -0.003259708
     27        1          -0.000779176   -0.000577658    0.006257103
     28        1           0.010725212   -0.004096612   -0.003592599
     29        1           0.004955182   -0.002122255    0.001101259
[...]
 **** Fit      -0.008984
 **** Fit      -0.009011
 **** Fit      -0.008470
 **** Fit      -0.007163
 **** Fit      -0.005083
 **** Fit      -0.002647
 **** Fit      -0.000651
 **** Fit       0.000304
 **** Fit       0.000346
 **** Fit       0.000027
 **** Fit      -0.000256
 **** Fit      -0.000400
 **** Fit      -0.000440
 **** Fit      -0.000427
 **** Fit      -0.000390
 **** Fit      -0.000338
 **** Fit      -0.010188
 **** Fit      -0.010886
 **** Fit      -0.011295
 **** Fit      -0.011198
 **** Fit      -0.010385
 **** Fit      -0.008792
 **** Fit      -0.006661
 **** Fit      -0.004525
 **** Fit      -0.002865
 **** Fit      -0.001775
 **** Fit      -0.001067
 **** Fit      -0.000567
 **** Fit      -0.000223
 **** Fit      -0.000022
 **** Fit       0.000067
 **** Fit       0.000091
 **** Fit       0.000090
 **** Fit      -0.011501
 **** Fit      -0.012435
 **** Fit      -0.013122
 **** Fit      -0.013339
 **** Fit      -0.012858
 **** Fit      -0.011566
 **** Fit      -0.009589
 **** Fit      -0.007293
 **** Fit      -0.005078
 **** Fit      -0.003159
 **** Fit      -0.001591
 **** Fit      -0.000420
 **** Fit       0.000321
 **** Fit       0.000677
 **** Fit       0.000768
 **** Fit       0.000718
 **** Fit       0.000621
 **** Fit       0.000525
 **** Fit      -0.013498
 **** Fit      -0.014328
 **** Fit      -0.014709
 **** Fit      -0.014409
 **** Fit      -0.013284
 **** Fit      -0.011390
 **** Fit      -0.008983
 **** Fit      -0.006381
 **** Fit      -0.003843
 **** Fit      -0.001603
 **** Fit       0.000093
 **** Fit       0.001111
 **** Fit       0.001532
 **** Fit       0.001563
 **** Fit       0.001405
 **** Fit       0.001191
 **** Fit       0.000990
 **** Fit      -0.014880
 **** Fit      -0.015298
 **** Fit      -0.015070
 **** Fit      -0.014050
 **** Fit      -0.012241
 **** Fit      -0.009804
 **** Fit      -0.006977
 **** Fit      -0.004037
 **** Fit      -0.001351
 **** Fit       0.000684
 **** Fit       0.001870
 **** Fit       0.002314
 **** Fit       0.002284
 **** Fit       0.002032
 **** Fit       0.001719
 **** Fit       0.001427
 **** Fit      -0.015201
 **** Fit      -0.014967
 **** Fit      -0.014006
 **** Fit      -0.012289
 **** Fit      -0.009904
 **** Fit      -0.007031
 **** Fit      -0.003958
 **** Fit      -0.001113
 **** Fit       0.001055
 **** Fit       0.002327
 **** Fit       0.002808
 **** Fit       0.002774
 **** Fit       0.002490
 **** Fit       0.002131
 **** Fit       0.001787
 **** Fit      -0.014295
 **** Fit      -0.013351
 **** Fit      -0.011723
 **** Fit      -0.009461
 **** Fit      -0.006716
 **** Fit      -0.003769
 **** Fit      -0.001029
 **** Fit       0.001092
 **** Fit       0.002389
 **** Fit       0.002937
 **** Fit       0.002970
 **** Fit       0.002729
 **** Fit       0.002386
 **** Fit       0.002036
 **** Fit      -0.013283
 **** Fit      -0.012336
 **** Fit      -0.010797
 **** Fit      -0.008710
 **** Fit      -0.006211
 **** Fit      -0.003553
 **** Fit      -0.001078
 **** Fit       0.000882
 **** Fit       0.002153
 **** Fit       0.002772
 **** Fit       0.002910
 **** Fit       0.002763
 **** Fit       0.002483
 **** Fit      -0.011198
 **** Fit      -0.009756
 **** Fit      -0.007870
 **** Fit      -0.005663
 **** Fit      -0.003346
 **** Fit      -0.001187
 **** Fit       0.000565
 **** Fit       0.001771
 **** Fit       0.002439
 **** Fit       0.002681
 **** Fit       0.002642
 **** Fit       0.002451
 **** Fit      -0.010106
 **** Fit      -0.008771
 **** Fit      -0.007086
 **** Fit      -0.005163
 **** Fit      -0.003170
 **** Fit      -0.001310
 **** Fit       0.000234
 **** Fit       0.001355
 **** Fit       0.002042
 **** Fit       0.002364
 **** Fit       0.002424
 **** Fit      -0.006427
 **** Fit      -0.004755
 **** Fit      -0.003040
 **** Fit      -0.001436
 **** Fit      -0.000076
 **** Fit       0.000954
 **** Fit       0.001638
 **** Fit       0.002014
 **** Fit      -0.002961
 **** Fit      -0.001566
 **** Fit      -0.000362
 **** Fit       0.001405
 **** Fit       0.001618
 **** Fit       0.001685
 **** Fit       0.001596
 **** Fit       0.001375
 **** Fit       0.001071
 **** Fit       0.000658
 **** Fit       0.001179
 **** Fit       0.001648
 **** Fit       0.001979
 **** Fit       0.002105
 **** Fit       0.002001
 **** Fit       0.001703
 **** Fit       0.001291
 **** Fit       0.000852
 **** Fit      -0.000157
 **** Fit       0.000494
 **** Fit       0.001204
 **** Fit       0.001874
 **** Fit       0.002375
 **** Fit       0.002591
 **** Fit       0.002476
 **** Fit       0.002083
 **** Fit       0.001535
 **** Fit       0.000964
 **** Fit       0.000466
 **** Fit      -0.001288
 **** Fit      -0.000665
 **** Fit       0.000134
 **** Fit       0.001057
 **** Fit       0.001975
 **** Fit       0.002700
 **** Fit       0.003045
 **** Fit       0.002931
 **** Fit       0.002434
 **** Fit       0.001739
 **** Fit       0.001034
 **** Fit       0.000441
 **** Fit       0.000008
 **** Fit      -0.002114
 **** Fit      -0.001449
 **** Fit      -0.000535
 **** Fit       0.000585
 **** Fit       0.001764
 **** Fit       0.002748
 **** Fit       0.003264
 **** Fit       0.003183
 **** Fit       0.002608
 **** Fit       0.001796
 **** Fit       0.000997
 **** Fit       0.000351
 **** Fit      -0.000099
 **** Fit      -0.003566
 **** Fit      -0.003203
 **** Fit      -0.002571
 **** Fit      -0.001623
 **** Fit      -0.000383
 **** Fit       0.001002
 **** Fit       0.002229
 **** Fit       0.002943
 **** Fit       0.002958
 **** Fit       0.002397
 **** Fit       0.001576
 **** Fit       0.000785
 **** Fit       0.000172
 **** Fit      -0.000234
 **** Fit      -0.000463
 **** Fit      -0.004764
 **** Fit      -0.004542
 **** Fit      -0.004036
 **** Fit      -0.003175
 **** Fit      -0.001951
 **** Fit      -0.000493
 **** Fit       0.000888
 **** Fit       0.001799
 **** Fit       0.002011
 **** Fit       0.001636
 **** Fit       0.000996
 **** Fit       0.000376
 **** Fit      -0.000087
 **** Fit      -0.000374
 **** Fit      -0.000518
 **** Fit      -0.006082
 **** Fit      -0.006059
 **** Fit      -0.005761
 **** Fit      -0.005102
 **** Fit      -0.004044
 **** Fit      -0.002676
 **** Fit      -0.001265
 **** Fit      -0.000180
 **** Fit       0.000341
 **** Fit       0.000353
 **** Fit       0.000108
 **** Fit      -0.000167
 **** Fit      -0.000366
 **** Fit      -0.000471
 **** Fit      -0.000502
 **** Fit      -0.007422
 **** Fit      -0.007624
 **** Fit      -0.007577
 **** Fit      -0.007182
 **** Fit      -0.006376
 **** Fit      -0.005199
 **** Fit      -0.003842
 **** Fit      -0.002600
 **** Fit      -0.001700
 **** Fit      -0.001168
 **** Fit      -0.000879
 **** Fit      -0.000702
 **** Fit      -0.000570
 **** Fit      -0.000461
 **** Fit      -0.000373
 **** Fit      -0.000301
 **** Fit      -0.009083
 **** Fit      -0.009273
 **** Fit      -0.009131
 **** Fit      -0.008569
 **** Fit      -0.007581
 **** Fit      -0.006282
 **** Fit      -0.004888
 **** Fit      -0.003609
 **** Fit      -0.002550
 **** Fit      -0.001713
 **** Fit      -0.001073
 **** Fit      -0.000608
 **** Fit      -0.000298
 **** Fit      -0.000112
 **** Fit      -0.000010
 **** Fit      -0.010295
 **** Fit      -0.010662
 **** Fit      -0.010706
 **** Fit      -0.010320
 **** Fit      -0.009460
 **** Fit      -0.008183
 **** Fit      -0.006650
 **** Fit      -0.005052
 **** Fit      -0.003547
 **** Fit      -0.002237
 **** Fit      -0.001192
 **** Fit      -0.000445
 **** Fit       0.000022
 **** Fit       0.000268
 **** Fit       0.000369
 **** Fit       0.000392
 **** Fit      -0.011628
 **** Fit      -0.011774
 **** Fit      -0.011483
 **** Fit      -0.010689
 **** Fit      -0.009413
 **** Fit      -0.007774
 **** Fit      -0.005943
 **** Fit      -0.004106
 **** Fit      -0.002436
 **** Fit      -0.001083
 **** Fit      -0.000129
 **** Fit       0.000441
 **** Fit       0.000711
 **** Fit       0.000790
 **** Fit       0.000768
 **** Fit      -0.012307
 **** Fit      -0.012045
 **** Fit      -0.011277
 **** Fit      -0.010002
 **** Fit      -0.008306
 **** Fit      -0.006339
 **** Fit      -0.004297
 **** Fit      -0.002401
 **** Fit      -0.000854
 **** Fit       0.000227
 **** Fit       0.000855
 **** Fit       0.001131
 **** Fit       0.001184
 **** Fit       0.001120
 **** Fit      -0.012078
 **** Fit      -0.011312
 **** Fit      -0.010049
 **** Fit      -0.008351
 **** Fit      -0.006349
 **** Fit      -0.004238
 **** Fit      -0.002258
 **** Fit      -0.000636
 **** Fit       0.000501
 **** Fit       0.001160
 **** Fit       0.001445
 **** Fit       0.001489
 **** Fit       0.001405
 **** Fit      -0.010930
 **** Fit      -0.009692
 **** Fit      -0.008043
 **** Fit      -0.006099
 **** Fit      -0.004045
 **** Fit      -0.002111
 **** Fit      -0.000513
 **** Fit       0.000625
 **** Fit       0.001302
 **** Fit       0.001609
 **** Fit       0.001670
 **** Fit       0.001593
 **** Fit      -0.010288
 **** Fit      -0.009092
 **** Fit      -0.007532
 **** Fit      -0.005715
 **** Fit      -0.003805
 **** Fit      -0.002004
 **** Fit      -0.000499
 **** Fit       0.000601
 **** Fit       0.001285
 **** Fit       0.001626
 **** Fit       0.001724
 **** Fit      -0.008393
 **** Fit      -0.006949
 **** Fit      -0.005294
 **** Fit      -0.003571
 **** Fit      -0.001944
 **** Fit      -0.000566
 **** Fit       0.000472
 **** Fit       0.001154
 **** Fit       0.001528
 **** Fit       0.001673
 **** Fit      -0.006382
 **** Fit      -0.004900
 **** Fit      -0.003369
 **** Fit      -0.001922
 **** Fit      -0.000678
 **** Fit       0.000287
 **** Fit       0.000955
 **** Fit       0.001355
 **** Fit      -0.003210
 **** Fit      -0.001929
 **** Fit      -0.000813
 **** Fit       0.000079
 **** Fit       0.000944
 **** Fit       0.001202
 **** Fit       0.001325
 **** Fit       0.001299
 **** Fit       0.001143
 **** Fit       0.000901
 **** Fit      -0.000041
 **** Fit       0.000463
 **** Fit       0.000934
 **** Fit       0.001294
 **** Fit       0.001481
 **** Fit       0.001468
 **** Fit       0.001282
 **** Fit       0.000985
 **** Fit       0.000651
 **** Fit      -0.001007
 **** Fit      -0.000447
 **** Fit       0.000175
 **** Fit       0.000780
 **** Fit       0.001264
 **** Fit       0.001536
 **** Fit       0.001553
 **** Fit       0.001348
 **** Fit       0.001008
 **** Fit       0.000627
 **** Fit       0.000282
 **** Fit      -0.001700
 **** Fit      -0.001081
 **** Fit      -0.000359
 **** Fit       0.000375
 **** Fit       0.000993
 **** Fit       0.001369
 **** Fit       0.001445
 **** Fit       0.001255
 **** Fit       0.000906
 **** Fit       0.000515
 **** Fit       0.000169
 **** Fit      -0.003071
 **** Fit      -0.002623
 **** Fit      -0.001995
 **** Fit      -0.001219
 **** Fit      -0.000388
 **** Fit       0.000351
 **** Fit       0.000848
 **** Fit       0.001022
 **** Fit       0.000906
 **** Fit       0.000618
 **** Fit       0.000284
 **** Fit      -0.000008
 **** Fit      -0.000220
 **** Fit      -0.004135
 **** Fit      -0.003768
 **** Fit      -0.003194
 **** Fit      -0.002431
 **** Fit      -0.001562
 **** Fit      -0.000735
 **** Fit      -0.000112
 **** Fit       0.000211
 **** Fit       0.000254
 **** Fit       0.000121
 **** Fit      -0.000070
 **** Fit      -0.000240
 **** Fit      -0.000356
 **** Fit      -0.005312
 **** Fit      -0.005072
 **** Fit      -0.004609
 **** Fit      -0.003926
 **** Fit      -0.003085
 **** Fit      -0.002212
 **** Fit      -0.001463
 **** Fit      -0.000941
 **** Fit      -0.000657
 **** Fit      -0.000539
 **** Fit      -0.000504
 **** Fit      -0.000490
 **** Fit      -0.000471
 **** Fit      -0.006514
 **** Fit      -0.006424
 **** Fit      -0.006106
 **** Fit      -0.005542
 **** Fit      -0.004767
 **** Fit      -0.003878
 **** Fit      -0.003004
 **** Fit      -0.002256
 **** Fit      -0.001677
 **** Fit      -0.001250
 **** Fit      -0.000936
 **** Fit      -0.000702
 **** Fit      -0.000527
 **** Fit      -0.007690
 **** Fit      -0.007513
 **** Fit      -0.007069
 **** Fit      -0.006365
 **** Fit      -0.005464
 **** Fit      -0.004472
 **** Fit      -0.003498
 **** Fit      -0.002621
 **** Fit      -0.001878
 **** Fit      -0.001279
 **** Fit      -0.000823
 **** Fit      -0.000495
 **** Fit      -0.000274
 **** Fit      -0.008751
 **** Fit      -0.008682
 **** Fit      -0.008328
 **** Fit      -0.007674
 **** Fit      -0.006755
 **** Fit      -0.005656
 **** Fit      -0.004486
 **** Fit      -0.003349
 **** Fit      -0.002327
 **** Fit      -0.001477
 **** Fit      -0.000827
 **** Fit      -0.000371
 **** Fit      -0.000080
 **** Fit      -0.009518
 **** Fit      -0.009214
 **** Fit      -0.008583
 **** Fit      -0.007642
 **** Fit      -0.006460
 **** Fit      -0.005142
 **** Fit      -0.003807
 **** Fit      -0.002571
 **** Fit      -0.001527
 **** Fit      -0.000729
 **** Fit      -0.000180
 **** Fit       0.000157
 **** Fit       0.000340
 **** Fit      -0.009701
 **** Fit      -0.009073
 **** Fit      -0.008114
 **** Fit      -0.006880
 **** Fit      -0.005470
 **** Fit      -0.004012
 **** Fit      -0.002640
 **** Fit      -0.001472
 **** Fit      -0.000579
 **** Fit       0.000029
 **** Fit       0.000394
 **** Fit       0.000581
 **** Fit      -0.008220
 **** Fit      -0.006970
 **** Fit      -0.005529
 **** Fit      -0.004023
 **** Fit      -0.002595
 **** Fit      -0.001374
 **** Fit      -0.000436
 **** Fit       0.000204
 **** Fit       0.000586
 **** Fit       0.000777
 **** Fit      -0.008045
 **** Fit      -0.006813
 **** Fit      -0.005395
 **** Fit      -0.003912
 **** Fit      -0.002500
 **** Fit      -0.001285
 **** Fit      -0.000343
 **** Fit       0.000308
 **** Fit       0.000704
 **** Fit      -0.006502
 **** Fit      -0.005150
 **** Fit      -0.003741
 **** Fit      -0.002398
 **** Fit      -0.001232
 **** Fit      -0.000316
 **** Fit       0.000332
 **** Fit       0.000739
 **** Fit      -0.004860
 **** Fit      -0.003555
 **** Fit      -0.002310
 **** Fit      -0.001220
 **** Fit      -0.000348
 **** Fit       0.000287
 **** Fit      -0.002246
 **** Fit       0.000279
 **** Fit       0.000551
 **** Fit       0.000717
 **** Fit       0.000762
 **** Fit       0.000697
 **** Fit      -0.000400
 **** Fit       0.000020
 **** Fit       0.000368
 **** Fit       0.000594
 **** Fit       0.000676
 **** Fit       0.000625
 **** Fit       0.000482
 **** Fit      -0.001402
 **** Fit      -0.000912
 **** Fit      -0.000419
 **** Fit       0.000008
 **** Fit       0.000306
 **** Fit       0.000444
 **** Fit       0.000432
 **** Fit       0.000316
 **** Fit       0.000153
 **** Fit      -0.002155
 **** Fit      -0.001635
 **** Fit      -0.001087
 **** Fit      -0.000586
 **** Fit      -0.000205
 **** Fit       0.000014
 **** Fit       0.000077
 **** Fit       0.000029
 **** Fit      -0.000072
 **** Fit      -0.003084
 **** Fit      -0.002568
 **** Fit      -0.001992
 **** Fit      -0.001430
 **** Fit      -0.000960
 **** Fit      -0.000632
 **** Fit      -0.000451
 **** Fit      -0.000381
 **** Fit      -0.000374
 **** Fit      -0.000388
 **** Fit      -0.004485
 **** Fit      -0.004140
 **** Fit      -0.003660
 **** Fit      -0.003082
 **** Fit      -0.002475
 **** Fit      -0.001913
 **** Fit      -0.001453
 **** Fit      -0.001115
 **** Fit      -0.000882
 **** Fit      -0.000723
 **** Fit      -0.000608
 **** Fit      -0.005237
 **** Fit      -0.004811
 **** Fit      -0.004251
 **** Fit      -0.003610
 **** Fit      -0.002956
 **** Fit      -0.002351
 **** Fit      -0.001832
 **** Fit      -0.001408
 **** Fit      -0.001071
 **** Fit      -0.000808
 **** Fit      -0.006272
 **** Fit      -0.005902
 **** Fit      -0.005363
 **** Fit      -0.004693
 **** Fit      -0.003952
 **** Fit      -0.003203
 **** Fit      -0.002503
 **** Fit      -0.001885
 **** Fit      -0.001367
 **** Fit      -0.006825
 **** Fit      -0.006300
 **** Fit      -0.005602
 **** Fit      -0.004782
 **** Fit      -0.003908
 **** Fit      -0.003046
 **** Fit      -0.002255
 **** Fit      -0.001576
 **** Fit      -0.001030
 **** Fit      -0.006988
 **** Fit      -0.006264
 **** Fit      -0.005381
 **** Fit      -0.004408
 **** Fit      -0.003420
 **** Fit      -0.002493
 **** Fit      -0.001687
 **** Fit      -0.001036
 **** Fit      -0.000549
 **** Fit      -0.005732
 **** Fit      -0.004694
 **** Fit      -0.003625
 **** Fit      -0.002608
 **** Fit      -0.001716
 **** Fit      -0.000994
 **** Fit      -0.000455
 **** Fit      -0.004793
 **** Fit      -0.003687
 **** Fit      -0.002628
 **** Fit      -0.001693
 **** Fit      -0.000934
 **** Fit      -0.000365
 **** Fit      -0.004749
 **** Fit      -0.003647
 **** Fit      -0.002589
 **** Fit      -0.001650
 **** Fit      -0.000882
 **** Fit      -0.002523
 **** Fit      -0.000553
 **** Fit      -0.000306
 **** Fit      -0.000147
 **** Fit      -0.001431
 **** Fit      -0.001063
 **** Fit      -0.000756
 **** Fit      -0.000534
 **** Fit      -0.000401
 **** Fit      -0.002131
 **** Fit      -0.001718
 **** Fit      -0.001346
 **** Fit      -0.001045
 **** Fit      -0.000826
 **** Fit      -0.000677
 **** Fit      -0.002935
 **** Fit      -0.002481
 **** Fit      -0.002042
 **** Fit      -0.001651
 **** Fit      -0.001325
 **** Fit      -0.001066
 **** Fit      -0.003776
 **** Fit      -0.003289
 **** Fit      -0.002782
 **** Fit      -0.002293
 **** Fit      -0.001851
 **** Fit      -0.004060
 **** Fit      -0.003488
 **** Fit      -0.002905
 **** Fit      -0.002346
 -----------------------------------------------------------------
 Leave Link  602 at Thu Apr 21 11:36:03 2022, MaxMem=   104857600 cpu:               3.5 elap:               3.7
 (Enter /opt/ohpc/pub/libs/gaussian/g16-A.03/haswell/g16/l9999.exe)

 Test job not archived.
 1\1\GINC-CASCADEB027\SP\RB3LYP\6-311++G(d,p)\C12H15N1O2\MNG228\21-Apr-
 2022\0\\#P B3LYP/6-311++G(d,p) Geom=Allcheck SCF=Tight EmpiricalDisper
 sion=GD3BJ Pop=CHELPG SP IOp(6/33=2)\\MAA1-AS1 geo opt\\0,1\C,0,13.775
 0562971,12.0314039508,14.8437893859\C,0,13.7769065851,12.2671599047,13
 .3622563954\C,0,14.3867890607,11.463511863,12.4860219489\C,0,13.138360
 5222,13.5461629814,12.9058363839\O,0,13.0901908742,14.5407310015,13.58
 60544377\O,0,12.6055289466,13.5612843826,11.6600873796\H,0,12.75579982
 07,12.0346338596,15.239899624\H,0,14.3246103143,12.8276261129,15.34837
 52268\H,0,14.247518729,11.07853834,15.0821150099\H,0,14.9042021804,10.
 5709215255,12.8166122781\H,0,14.445828898,11.6856655436,11.4257250167\
 H,0,12.6120433258,12.668878166,11.2920800016\C,0,19.6930355653,10.9873
 022502,15.7581245145\C,0,19.0199833039,11.6904007653,14.8397409662\C,0
 ,18.0343285673,12.7508567149,15.063723833\C,0,17.3885023339,13.3375660
 37,13.9653998505\C,0,16.4359318944,14.3333697795,14.1180964608\C,0,16.
 0740658007,14.7816241198,15.3970671652\C,0,16.7331194795,14.2184790452
 ,16.5049140817\C,0,17.6869348917,13.2287240677,16.3382530201\N,0,15.11
 37612396,15.7734321439,15.5510470836\H,0,20.4028697262,10.2244381948,1
 5.4633933266\H,0,19.5663792862,11.144552441,16.8234291641\H,0,19.20770
 46376,11.4659672555,13.791416432\H,0,17.6412870405,12.9999443955,12.96
 5302418\H,0,15.956357811,14.7688929241,13.2498114312\H,0,16.4785741173
 ,14.5590262664,17.5036001269\H,0,18.16719383,12.8158192855,17.21756526
 56\H,0,14.3718462555,15.7467243839,14.8617723262\H,0,14.7542886655,15.
 8783622981,16.4884894455\\Version=ES64L-G16RevA.03\State=1-A\HF=-671.7
 404615\RMSD=7.916e-09\Dipole=-0.5774093,-1.3831204,-0.2422748\Quadrupo
 le=-5.3122725,-3.4750231,8.7872956,3.4651276,-1.2939581,6.5351084\PG=C
 01 [X(C12H15N1O2)]\\@


 SI MONUMENTUM REQUIRIS, CIRCUMSPICE
     -- FROM SIR CHRISTOPHER WREN'S TOMBSTONE
 Job cpu time:       0 days  0 hours 10 minutes 49.4 seconds.
 Elapsed time:       0 days  0 hours 10 minutes 51.7 seconds.
 File lengths (MBytes):  RWF=    336 Int=      0 D2E=      0 Chk=     32 Scr=     32
 Normal termination of Gaussian 16 at Thu Apr 21 11:36:03 2022.
