 Entering Gaussian System, Link 0=g16
 Initial command:
 /opt/ohpc/pub/libs/gaussian/g16-A.03/haswell/g16/l1.exe "g16_scratch/Gau-151344.inp" -scrdir="g16_scratch/"
 Entering Link 1 = /opt/ohpc/pub/libs/gaussian/g16-A.03/haswell/g16/l1.exe PID=    151345.
  
 Copyright (c) 1988,1990,1992,1993,1995,1998,2003,2009,2016,
            Gaussian, Inc.  All Rights Reserved.
  
 This is part of the Gaussian(R) 16 program.  It is based on
 the Gaussian(R) 09 system (copyright 2009, Gaussian, Inc.),
 the Gaussian(R) 03 system (copyright 2003, Gaussian, Inc.),
 the Gaussian(R) 98 system (copyright 1998, Gaussian, Inc.),
 the Gaussian(R) 94 system (copyright 1995, Gaussian, Inc.),
 the Gaussian 92(TM) system (copyright 1992, Gaussian, Inc.),
 the Gaussian 90(TM) system (copyright 1990, Gaussian, Inc.),
 the Gaussian 88(TM) system (copyright 1988, Gaussian, Inc.),
 the Gaussian 86(TM) system (copyright 1986, Carnegie Mellon
 University), and the Gaussian 82(TM) system (copyright 1983,
 Carnegie Mellon University). Gaussian is a federally registered
 trademark of Gaussian, Inc.
  
 This software contains proprietary and confidential information,
 including trade secrets, belonging to Gaussian, Inc.
  
 This software is provided under written license and may be
 used, copied, transmitted, or stored only in accord with that
 written license.
  
 The following legend is applicable only to US Government
 contracts under FAR:
  
                    RESTRICTED RIGHTS LEGEND
  
 Use, reproduction and disclosure by the US Government is
 subject to restrictions as set forth in subparagraphs (a)
 and (c) of the Commercial Computer Software - Restricted
 Rights clause in FAR 52.227-19.
  
 Gaussian, Inc.
 340 Quinnipiac St., Bldg. 40, Wallingford CT 06492
  
  
 ---------------------------------------------------------------
 Warning -- This program may not be used in any manner that
 competes with the business of Gaussian, Inc. or will provide
 assistance to any competitor of Gaussian, Inc.  The licensee
 of this program is prohibited from giving any competitor of
 Gaussian, Inc. access to this program.  By using this program,
 the user acknowledges that Gaussian, Inc. is engaged in the
 business of creating and licensing software in the field of
 computational chemistry and represents and warrants to the
 licensee that it is not a competitor of Gaussian, Inc. and that
 it will not use this program in any manner prohibited above.
 ---------------------------------------------------------------
  

 Cite this work as:
 Gaussian 16, Revision A.03,
 M. J. Frisch, G. W. Trucks, H. B. Schlegel, G. E. Scuseria, 
 M. A. Robb, J. R. Cheeseman, G. Scalmani, V. Barone, 
 G. A. Petersson, H. Nakatsuji, X. Li, M. Caricato, A. V. Marenich, 
 J. Bloino, B. G. Janesko, R. Gomperts, B. Mennucci, H. P. Hratchian, 
 J. V. Ortiz, A. F. Izmaylov, J. L. Sonnenberg, D. Williams-Young, 
 F. Ding, F. Lipparini, F. Egidi, J. Goings, B. Peng, A. Petrone, 
 T. Henderson, D. Ranasinghe, V. G. Zakrzewski, J. Gao, N. Rega, 
 G. Zheng, W. Liang, M. Hada, M. Ehara, K. Toyota, R. Fukuda, 
 J. Hasegawa, M. Ishida, T. Nakajima, Y. Honda, O. Kitao, H. Nakai, 
 T. Vreven, K. Throssell, J. A. Montgomery, Jr., J. E. Peralta, 
 F. Ogliaro, M. J. Bearpark, J. J. Heyd, E. N. Brothers, K. N. Kudin, 
 V. N. Staroverov, T. A. Keith, R. Kobayashi, J. Normand, 
 K. Raghavachari, A. P. Rendell, J. C. Burant, S. S. Iyengar, 
 J. Tomasi, M. Cossi, J. M. Millam, M. Klene, C. Adamo, R. Cammi, 
 J. W. Ochterski, R. L. Martin, K. Morokuma, O. Farkas, 
 J. B. Foresman, and D. J. Fox, Gaussian, Inc., Wallingford CT, 2016.
 
 ******************************************
 Gaussian 16:  ES64L-G16RevA.03 25-Dec-2016
                21-Apr-2022 
 ******************************************
 %Mem=192GB
 %NProcShared=48
 Will use up to   48 processors via shared memory.
 %Chk=MAA1-AS1-3.chk
 ---------------------------------------------------------------------
 #n B3LYP/6-311++G(d,p) Opt freq EmpiricalDispersion=GD3BJ IOp(6/33=2)
 ---------------------------------------------------------------------
 1/18=20,19=15,26=3,38=1/1,3;
 2/9=110,12=2,17=6,18=5,40=1/2;
 3/5=4,6=6,7=1111,11=2,25=1,30=1,71=1,74=-5,124=41/1,2,3;
 4//1;
 5/5=2,38=5/2;
 6/7=2,8=2,9=2,10=2,28=1,33=2/1;
 7//1,2,3,16;
 1/18=20,19=15,26=3/3(2);
 2/9=110/2;
 99//99;
 2/9=110/2;
 3/5=4,6=6,7=1111,11=2,25=1,30=1,71=1,74=-5,124=41/1,2,3;
 4/5=5,16=3,69=1/1;
 5/5=2,38=5/2;
 7//1,2,3,16;
 1/18=20,19=15,26=3/3(-5);
 2/9=110/2;
 6/7=2,8=2,9=2,10=2,19=2,28=1,33=2/1;
 99/9=1/99;
 ----------------
 MAA1-AS1 geo opt
 ----------------
 Symbolic Z-matrix:
 Charge =  0 Multiplicity = 1
 C                     13.742    12.602    12.811 
 C                     12.299    12.229    12.64 
 C                     11.675    11.672    13.663 
 C                     11.595    12.606    11.435 
 O                     10.456    12.218    11.147 
 O                     12.079    13.584    10.652 
 H                     13.807    13.374    13.578 
 H                     14.17     13.067    11.923 
 H                     14.366    11.75     13.082 
 H                     12.284    11.461    14.529 
 H                     10.619    11.444    13.692 
 H                     12.907    13.994    10.849 
 C                     9.318     18.016    5.544 
 C                     9.429     18.277    6.836 
 C                     8.875     17.263    7.723 
 C                     9.69      16.851    8.781 
 C                     9.323     15.822    9.673 
 C                     8.16      15.152    9.379 
 C                     7.328     15.475    8.331 
 C                     7.623     16.611    7.568 
 N                     7.785     14.02     10.014 
 H                     9.762     18.725    4.86 
 H                     8.732     17.192    5.165 
 H                     10.072    19.072    7.183 
 H                     10.679    17.268    8.902 
 H                     10.007    15.529    10.456 
 H                     6.374     14.996    8.163 
 H                     7.015     16.908    6.726 
 H                     8.547     13.472    10.387 
 H                     7.257     13.458    9.362 
 
 Add virtual bond connecting atoms H29        and O5         Dist= 4.55D+00.

 GradGradGradGradGradGradGradGradGradGradGradGradGradGradGradGradGradGrad
 Berny optimization.
 Initialization pass.
                           ----------------------------
                           !    Initial Parameters    !
                           ! (Angstroms and Degrees)  !
 --------------------------                            --------------------------
 ! Name  Definition              Value          Derivative Info.                !
 --------------------------------------------------------------------------------
 ! R1    R(1,2)                  1.5002         estimate D2E/DX2                !
 ! R2    R(1,7)                  1.0902         estimate D2E/DX2                !
 ! R3    R(1,8)                  1.0899         estimate D2E/DX2                !
 ! R4    R(1,9)                  1.0903         estimate D2E/DX2                !
 ! R5    R(2,3)                  1.3214         estimate D2E/DX2                !
 ! R6    R(2,4)                  1.4456         estimate D2E/DX2                !
 ! R7    R(3,10)                 1.0795         estimate D2E/DX2                !
 ! R8    R(3,11)                 1.0807         estimate D2E/DX2                !
 ! R9    R(4,5)                  1.2373         estimate D2E/DX2                !
 ! R10   R(4,6)                  1.3431         estimate D2E/DX2                !
 ! R11   R(5,29)                 2.4072         estimate D2E/DX2                !
 ! R12   R(6,12)                 0.9447         estimate D2E/DX2                !
 ! R13   R(13,14)                1.3228         estimate D2E/DX2                !
 ! R14   R(13,22)                1.0806         estimate D2E/DX2                !
 ! R15   R(13,23)                1.0798         estimate D2E/DX2                !
 ! R16   R(14,15)                1.4567         estimate D2E/DX2                !
 ! R17   R(14,24)                1.0798         estimate D2E/DX2                !
 ! R18   R(15,16)                1.3976         estimate D2E/DX2                !
 ! R19   R(15,20)                1.4201         estimate D2E/DX2                !
 ! R20   R(16,17)                1.4104         estimate D2E/DX2                !
 ! R21   R(16,25)                1.0801         estimate D2E/DX2                !
 ! R22   R(17,18)                1.374          estimate D2E/DX2                !
 ! R23   R(17,26)                1.0802         estimate D2E/DX2                !
 ! R24   R(18,19)                1.3765         estimate D2E/DX2                !
 ! R25   R(18,21)                1.351          estimate D2E/DX2                !
 ! R26   R(19,20)                1.3999         estimate D2E/DX2                !
 ! R27   R(19,27)                1.0806         estimate D2E/DX2                !
 ! R28   R(20,28)                1.0802         estimate D2E/DX2                !
 ! R29   R(21,29)                1.01           estimate D2E/DX2                !
 ! R30   R(21,30)                1.0098         estimate D2E/DX2                !
 ! A1    A(2,1,7)              108.2769         estimate D2E/DX2                !
 ! A2    A(2,1,8)              113.0117         estimate D2E/DX2                !
 ! A3    A(2,1,9)              112.6153         estimate D2E/DX2                !
 ! A4    A(7,1,8)              104.3401         estimate D2E/DX2                !
 ! A5    A(7,1,9)              110.1436         estimate D2E/DX2                !
 ! A6    A(8,1,9)              108.1288         estimate D2E/DX2                !
 ! A7    A(1,2,3)              118.0844         estimate D2E/DX2                !
 ! A8    A(1,2,4)              119.9071         estimate D2E/DX2                !
 ! A9    A(3,2,4)              121.6868         estimate D2E/DX2                !
 ! A10   A(2,3,10)             115.9148         estimate D2E/DX2                !
 ! A11   A(2,3,11)             124.8282         estimate D2E/DX2                !
 ! A12   A(10,3,11)            119.2403         estimate D2E/DX2                !
 ! A13   A(2,4,5)              124.0949         estimate D2E/DX2                !
 ! A14   A(2,4,6)              120.0243         estimate D2E/DX2                !
 ! A15   A(5,4,6)              115.1127         estimate D2E/DX2                !
 ! A16   A(4,5,29)             129.8064         estimate D2E/DX2                !
 ! A17   A(4,6,12)             120.6839         estimate D2E/DX2                !
 ! A18   A(14,13,22)           117.0215         estimate D2E/DX2                !
 ! A19   A(14,13,23)           122.6107         estimate D2E/DX2                !
 ! A20   A(22,13,23)           120.0989         estimate D2E/DX2                !
 ! A21   A(13,14,15)           115.182          estimate D2E/DX2                !
 ! A22   A(13,14,24)           120.6067         estimate D2E/DX2                !
 ! A23   A(15,14,24)           122.91           estimate D2E/DX2                !
 ! A24   A(14,15,16)           116.3839         estimate D2E/DX2                !
 ! A25   A(14,15,20)           126.0468         estimate D2E/DX2                !
 ! A26   A(16,15,20)           117.4772         estimate D2E/DX2                !
 ! A27   A(15,16,17)           122.8268         estimate D2E/DX2                !
 ! A28   A(15,16,25)           120.3273         estimate D2E/DX2                !
 ! A29   A(17,16,25)           116.6848         estimate D2E/DX2                !
 ! A30   A(16,17,18)           116.1478         estimate D2E/DX2                !
 ! A31   A(16,17,26)           119.4442         estimate D2E/DX2                !
 ! A32   A(18,17,26)           123.9739         estimate D2E/DX2                !
 ! A33   A(17,18,19)           124.0612         estimate D2E/DX2                !
 ! A34   A(17,18,21)           122.8841         estimate D2E/DX2                !
 ! A35   A(19,18,21)           112.7478         estimate D2E/DX2                !
 ! A36   A(18,19,20)           118.555          estimate D2E/DX2                !
 ! A37   A(18,19,27)           123.2254         estimate D2E/DX2                !
 ! A38   A(20,19,27)           117.4517         estimate D2E/DX2                !
 ! A39   A(15,20,19)           119.9258         estimate D2E/DX2                !
 ! A40   A(15,20,28)           117.0701         estimate D2E/DX2                !
 ! A41   A(19,20,28)           121.9622         estimate D2E/DX2                !
 ! A42   A(18,21,29)           114.7579         estimate D2E/DX2                !
 ! A43   A(18,21,30)           107.9371         estimate D2E/DX2                !
 ! A44   A(29,21,30)           109.3276         estimate D2E/DX2                !
 ! A45   L(5,29,21,17,-1)      177.1761         estimate D2E/DX2                !
 ! A46   L(5,29,21,17,-2)      177.0057         estimate D2E/DX2                !
 ! D1    D(7,1,2,3)            -64.1206         estimate D2E/DX2                !
 ! D2    D(7,1,2,4)            109.4772         estimate D2E/DX2                !
 ! D3    D(8,1,2,3)           -179.1863         estimate D2E/DX2                !
 ! D4    D(8,1,2,4)             -5.5885         estimate D2E/DX2                !
 ! D5    D(9,1,2,3)             57.9161         estimate D2E/DX2                !
 ! D6    D(9,1,2,4)           -128.4861         estimate D2E/DX2                !
 ! D7    D(1,2,3,10)            -4.3867         estimate D2E/DX2                !
 ! D8    D(1,2,3,11)           174.1113         estimate D2E/DX2                !
 ! D9    D(4,2,3,10)          -177.8644         estimate D2E/DX2                !
 ! D10   D(4,2,3,11)             0.6335         estimate D2E/DX2                !
 ! D11   D(1,2,4,5)            171.7951         estimate D2E/DX2                !
 ! D12   D(1,2,4,6)            -18.7454         estimate D2E/DX2                !
 ! D13   D(3,2,4,5)            -14.8437         estimate D2E/DX2                !
 ! D14   D(3,2,4,6)            154.6158         estimate D2E/DX2                !
 ! D15   D(2,4,5,29)           132.0846         estimate D2E/DX2                !
 ! D16   D(6,4,5,29)           -37.8415         estimate D2E/DX2                !
 ! D17   D(2,4,6,12)             3.9745         estimate D2E/DX2                !
 ! D18   D(5,4,6,12)           174.3436         estimate D2E/DX2                !
 ! D19   D(4,5,21,18)           25.0219         estimate D2E/DX2                !
 ! D20   D(4,5,21,30)          144.7929         estimate D2E/DX2                !
 ! D21   D(22,13,14,15)       -177.0882         estimate D2E/DX2                !
 ! D22   D(22,13,14,24)         -9.7447         estimate D2E/DX2                !
 ! D23   D(23,13,14,15)          8.8714         estimate D2E/DX2                !
 ! D24   D(23,13,14,24)        176.2149         estimate D2E/DX2                !
 ! D25   D(13,14,15,16)        131.8689         estimate D2E/DX2                !
 ! D26   D(13,14,15,20)        -44.5352         estimate D2E/DX2                !
 ! D27   D(24,14,15,16)        -35.1502         estimate D2E/DX2                !
 ! D28   D(24,14,15,20)        148.4457         estimate D2E/DX2                !
 ! D29   D(14,15,16,17)       -176.11           estimate D2E/DX2                !
 ! D30   D(14,15,16,25)         -0.8797         estimate D2E/DX2                !
 ! D31   D(20,15,16,17)          0.6133         estimate D2E/DX2                !
 ! D32   D(20,15,16,25)        175.8436         estimate D2E/DX2                !
 ! D33   D(14,15,20,19)        167.2139         estimate D2E/DX2                !
 ! D34   D(14,15,20,28)         -1.343          estimate D2E/DX2                !
 ! D35   D(16,15,20,19)         -9.1551         estimate D2E/DX2                !
 ! D36   D(16,15,20,28)       -177.7119         estimate D2E/DX2                !
 ! D37   D(15,16,17,18)          5.6042         estimate D2E/DX2                !
 ! D38   D(15,16,17,26)        178.3445         estimate D2E/DX2                !
 ! D39   D(25,16,17,18)       -169.7884         estimate D2E/DX2                !
 ! D40   D(25,16,17,26)          2.9519         estimate D2E/DX2                !
 ! D41   D(16,17,18,19)         -3.5372         estimate D2E/DX2                !
 ! D42   D(16,17,18,21)        169.6339         estimate D2E/DX2                !
 ! D43   D(26,17,18,19)       -175.9117         estimate D2E/DX2                !
 ! D44   D(26,17,18,21)         -2.7406         estimate D2E/DX2                !
 ! D45   D(17,18,19,20)         -4.752          estimate D2E/DX2                !
 ! D46   D(17,18,19,27)       -174.4477         estimate D2E/DX2                !
 ! D47   D(21,18,19,20)       -178.5361         estimate D2E/DX2                !
 ! D48   D(21,18,19,27)         11.7682         estimate D2E/DX2                !
 ! D49   D(17,18,21,29)        -26.8416         estimate D2E/DX2                !
 ! D50   D(17,18,21,30)       -149.0075         estimate D2E/DX2                !
 ! D51   D(19,18,21,29)        147.0267         estimate D2E/DX2                !
 ! D52   D(19,18,21,30)         24.8608         estimate D2E/DX2                !
 ! D53   D(18,19,20,15)         11.2176         estimate D2E/DX2                !
 ! D54   D(18,19,20,28)        179.1989         estimate D2E/DX2                !
 ! D55   D(27,19,20,15)       -178.4901         estimate D2E/DX2                !
 ! D56   D(27,19,20,28)        -10.5087         estimate D2E/DX2                !
 --------------------------------------------------------------------------------
 Trust Radius=3.00D-01 FncErr=1.00D-07 GrdErr=1.00D-06 EigMax=2.50D+02 EigMin=1.00D-04
 Number of steps in this run=    142 maximum allowed number of steps=    180.
 GradGradGradGradGradGradGradGradGradGradGradGradGradGradGradGradGradGrad

                          Input orientation:                          
 ---------------------------------------------------------------------
 Center     Atomic      Atomic             Coordinates (Angstroms)
 Number     Number       Type             X           Y           Z
 ---------------------------------------------------------------------
      1          6           0       13.742000   12.602000   12.811000
      2          6           0       12.299000   12.229000   12.640000
      3          6           0       11.675000   11.672000   13.663000
      4          6           0       11.595000   12.606000   11.435000
      5          8           0       10.456000   12.218000   11.147000
      6          8           0       12.079000   13.584000   10.652000
      7          1           0       13.807000   13.374000   13.578000
      8          1           0       14.170000   13.067000   11.923000
      9          1           0       14.366000   11.750000   13.082000
     10          1           0       12.284000   11.461000   14.529000
     11          1           0       10.619000   11.444000   13.692000
     12          1           0       12.907000   13.994000   10.849000
     13          6           0        9.318000   18.016000    5.544000
     14          6           0        9.429000   18.277000    6.836000
     15          6           0        8.875000   17.263000    7.723000
     16          6           0        9.690000   16.851000    8.781000
     17          6           0        9.323000   15.822000    9.673000
     18          6           0        8.160000   15.152000    9.379000
     19          6           0        7.328000   15.475000    8.331000
     20          6           0        7.623000   16.611000    7.568000
     21          7           0        7.785000   14.020000   10.014000
     22          1           0        9.762000   18.725000    4.860000
     23          1           0        8.732000   17.192000    5.165000
     24          1           0       10.072000   19.072000    7.183000
     25          1           0       10.679000   17.268000    8.902000
     26          1           0       10.007000   15.529000   10.456000
     27          1           0        6.374000   14.996000    8.163000
     28          1           0        7.015000   16.908000    6.726000
     29          1           0        8.547000   13.472000   10.387000
     30          1           0        7.257000   13.458000    9.362000
 ---------------------------------------------------------------------
                    Distance matrix (angstroms):
                    1          2          3          4          5
     1  C    0.000000
     2  C    1.500206   0.000000
     3  C    2.421424   1.321421   0.000000
     4  C    2.550098   1.445604   2.417176   0.000000
     5  O    3.703262   2.371881   2.848567   1.237259   0.000000
     6  O    2.896752   2.415899   3.589580   1.343067   2.178327
     7  H    1.090183   2.113039   2.729369   3.174148   4.298290
     8  H    1.089933   2.171860   3.346438   2.661069   3.888029
     9  H    1.090285   2.167324   2.754111   3.335234   4.387636
    10  H    2.525702   2.039208   1.079517   3.370250   3.918234
    11  H    3.445323   2.131978   1.080722   2.719719   2.665083
    12  H    2.546435   2.587000   3.850728   1.997820   3.041444
    13  C   10.084268   9.629587  10.569766   8.316051   8.142816
    14  C    9.300979   8.860114   9.761069   7.615944   7.506726
    15  C    8.443954   7.825715   8.624551   6.547136   6.298838
    16  C    7.121349   6.562137   7.388923   5.356563   5.258270
    17  C    6.304205   5.528952   6.218883   4.313848   4.055266
    18  C    7.031348   6.025726   6.543568   4.744310   4.123808
    19  C    8.334502   7.335860   7.860626   6.006102   5.321869
    20  C    9.000183   8.172642   8.829578   6.838896   6.335107
    21  N    6.731997   5.520847   5.827556   4.305199   3.415426
    22  H   10.795829  10.448100  11.441031   9.166934   9.074638
    23  H   10.228857   9.655593  10.552140   8.278953   7.968512
    24  H    9.327603   9.031336   9.965942   7.887217   7.927047
    25  H    6.814236   6.479858   7.414469   5.384180   5.531026
    26  H    5.297507   4.573086   5.286163   3.467580   3.412009
    27  H    9.034521   7.924989   8.330641   6.608852   5.769252
    28  H   10.040986   9.208099   9.861707   7.852279   7.306286
    29  H    5.798336   4.549567   4.874070   3.337449   2.407155
    30  H    7.394833   6.138199   6.419277   4.882773   3.867483
                    6          7          8          9         10
     6  O    0.000000
     7  H    3.404638   0.000000
     8  H    2.501002   1.721930   0.000000
     9  H    3.807732   1.787700   1.765272   0.000000
    10  H    4.424961   2.623642   3.595479   2.551873   0.000000
    11  H    3.994096   3.728437   4.286384   3.808641   1.863621
    12  H    0.944718   2.939701   1.899467   3.485758   4.510723
    13  C    7.304616  10.307494   9.419456  11.025720  11.510665
    14  C    6.603681   9.415989   8.689002  10.295058  10.667293
    15  C    5.690316   8.586616   7.955089   9.447917   9.571109
    16  C    4.458840   7.214598   6.652911   8.147624   8.295809
    17  C    3.682746   6.430240   6.012149   7.323545   7.167048
    18  C    4.408822   7.258202   6.851223   7.987506   7.559984
    19  C    5.615596   8.597828   8.094065   9.272598   8.893219
    20  C    6.207231   9.210870   8.624916   9.975047   9.833765
    21  N    4.362978   7.027368   6.732066   7.607568   6.868385
    22  H    8.083665  10.999943  10.066250  11.723853  12.353774
    23  H    7.370702  10.540935   9.605105  11.137154  11.538872
    24  H    6.795598   9.344167   8.678780  10.336746  10.806664
    25  H    4.312117   6.841973   6.241949   7.843130   8.243810
    26  H    2.848618   5.369442   5.054117   6.338580   6.190532
    27  H    6.382467   9.338233   8.867709   9.930012   9.378181
    28  H    7.218487  10.274742   9.641375  11.001859  10.877453
    29  H    3.543698   6.153022   5.843069   6.639960   5.930047
    30  H    4.993161   7.790007   7.382491   8.203264   7.480416
                   11         12         13         14         15
    11  H    0.000000
    12  H    4.451976   0.000000
    13  C   10.548634   7.563097   0.000000
    14  C    9.752473   6.822371   1.322765   0.000000
    15  C    8.516529   6.059312   2.347616   1.456668   0.000000
    16  C    7.363193   4.773695   3.460315   2.425824   1.397617
    17  C    6.082669   4.191613   4.675714   3.753243   2.465702
    18  C    6.196605   5.102536   4.924498   4.224078   2.776667
    19  C    7.471276   6.297533   4.264288   3.807943   2.441274
    20  C    8.554372   6.747911   2.990590   2.563789   1.420082
    21  N    5.309898   5.189681   6.188619   5.560977   4.117503
    22  H   11.478311   8.254787   1.080589   2.053331   3.334814
    23  H   10.455142   7.743751   1.079821   2.110752   2.562978
    24  H   10.042543   6.874799   2.090448   1.079761   2.235372
    25  H    7.541000   4.412921   3.699728   2.617047   2.155106
    26  H    5.247234   3.304644   5.548661   4.581483   3.428917
    27  H    7.823463   7.134332   4.964544   4.675352   3.404099
    28  H    9.558727   7.759265   2.815776   2.777347   2.140008
    29  H    4.396475   4.415374   6.685583   6.039499   4.645015
    30  H    5.840217   5.866938   6.292870   5.858415   4.447726
                   16         17         18         19         20
    16  C    0.000000
    17  C    1.410388   0.000000
    18  C    2.363283   1.374011   0.000000
    19  C    2.770365   2.429279   1.376538   0.000000
    20  C    2.408622   2.818430   2.386791   1.399889   0.000000
    21  N    3.628205   2.393518   1.351027   2.271203   3.566853
    22  H    4.346412   5.637828   5.979473   5.341788   4.046922
    23  H    3.756262   4.748499   4.716628   3.865600   2.709585
    24  H    2.762674   4.162163   4.883089   4.667531   3.493186
    25  H    1.080116   2.126992   3.324206   3.843188   3.398579
    26  H    2.157266   1.080182   2.171052   3.419880   3.898041
    27  H    3.849520   3.414524   2.166284   1.080639   2.126558
    28  H    3.373707   3.897572   3.381268   2.174278   1.080202
    29  H    3.911947   2.575747   1.997056   3.118510   4.319011
    30  H    4.215388   3.154928   1.919722   2.266339   3.646067
                   21         22         23         24         25
    21  N    0.000000
    22  H    7.253225   0.000000
    23  H    5.871217   1.871901   0.000000
    24  H    6.226366   2.369143   3.066321   0.000000
    25  H    4.490132   4.393347   4.214470   2.564727   0.000000
    26  H    2.722082   6.449004   5.690859   4.823858   2.427060
    27  H    2.523826   6.024433   4.401203   5.590114   4.923528
    28  H    4.443466   3.785427   2.337834   3.773194   4.276619
    29  H    1.009989   7.721267   6.414196   6.629573   4.600029
    30  H    1.009818   7.367789   5.808028   6.647500   5.141769
                   26         27         28         29         30
    26  H    0.000000
    27  H    4.329045   0.000000
    28  H    4.976606   2.476206   0.000000
    29  H    2.523412   3.462756   5.249385   0.000000
    30  H    3.612254   2.140732   4.348512   1.647702   0.000000
 Stoichiometry    C12H15NO2
 Framework group  C1[X(C12H15NO2)]
 Deg. of freedom    84
 Full point group                 C1      NOp   1
 Largest Abelian subgroup         C1      NOp   1
 Largest concise Abelian subgroup C1      NOp   1
                         Standard orientation:                         
 ---------------------------------------------------------------------
 Center     Atomic      Atomic             Coordinates (Angstroms)
 Number     Number       Type             X           Y           Z
 ---------------------------------------------------------------------
      1          6           0        4.923858   -1.708471   -0.112771
      2          6           0        4.387743   -0.311977    0.001262
      3          6           0        5.116340    0.675963   -0.487895
      4          6           0        3.050879   -0.092070    0.505450
      5          8           0        2.583652    1.022881    0.768875
      6          8           0        2.162654   -1.099424    0.516503
      7          1           0        4.990815   -1.963674   -1.170545
      8          1           0        4.251462   -2.458338    0.303804
      9          1           0        5.897702   -1.823915    0.363696
     10          1           0        6.087238    0.401050   -0.871481
     11          1           0        4.798179    1.707125   -0.546552
     12          1           0        2.416848   -1.969242    0.249491
     13          6           0       -5.116711   -1.624217    0.821218
     14          6           0       -4.375010   -1.592694   -0.273584
     15          6           0       -3.428133   -0.488342   -0.349163
     16          6           0       -2.116838   -0.817669   -0.703256
     17          6           0       -1.073487    0.130654   -0.739253
     18          6           0       -1.385013    1.391012   -0.289415
     19          6           0       -2.643588    1.776733    0.113159
     20          6           0       -3.699179    0.868235   -0.028435
     21          7           0       -0.451990    2.343483   -0.071379
     22          1           0       -5.795250   -2.458050    0.930678
     23          1           0       -5.131489   -0.816375    1.537588
     24          1           0       -4.338105   -2.443574   -0.937304
     25          1           0       -1.844422   -1.845906   -0.890788
     26          1           0       -0.073864   -0.189122   -0.994775
     27          1           0       -2.893691    2.793034    0.382162
     28          1           0       -4.705825    1.108537    0.281009
     29          1           0        0.467261    1.991264    0.154447
     30          1           0       -0.778534    2.932191    0.681299
 ---------------------------------------------------------------------
 Rotational constants (GHZ):           1.2341619           0.2047494           0.1823528
 Standard basis: 6-311++G(d,p) (5D, 7F)
 There are   450 symmetry adapted cartesian basis functions of A   symmetry.
 There are   435 symmetry adapted basis functions of A   symmetry.
   435 basis functions,   675 primitive gaussians,   450 cartesian basis functions
    55 alpha electrons       55 beta electrons
       nuclear repulsion energy       883.7532465189 Hartrees.
 NAtoms=   30 NActive=   30 NUniq=   30 SFac= 1.00D+00 NAtFMM=   60 NAOKFM=F Big=F
 Integral buffers will be    131072 words long.
 Raffenetti 2 integral format.
 Two-electron integral symmetry is turned on.
 Nuclear repulsion after empirical dispersion term =      883.7025910179 Hartrees.
 One-electron integrals computed using PRISM.
 NBasis=   435 RedAO= T EigKep=  2.44D-06  NBF=   435
 NBsUse=   434 1.00D-06 EigRej=  8.55D-07 NBFU=   434
 ExpMin= 3.60D-02 ExpMax= 8.59D+03 ExpMxC= 1.30D+03 IAcc=3 IRadAn=         5 AccDes= 0.00D+00
 Harris functional with IExCor=  402 and IRadAn=       5 diagonalized for initial guess.
 HarFok:  IExCor=  402 AccDes= 0.00D+00 IRadAn=         5 IDoV= 1 UseB2=F ITyADJ=14
 ICtDFT=  3500011 ScaDFX=  1.000000  1.000000  1.000000  1.000000
 FoFCou: FMM=F IPFlag=           0 FMFlag=      100000 FMFlg1=           0
         NFxFlg=           0 DoJE=T BraDBF=F KetDBF=T FulRan=T
         wScrn=  0.000000 ICntrl=       500 IOpCl=  0 I1Cent=   200000004 NGrid=           0
         NMat0=    1 NMatS0=      1 NMatT0=    0 NMatD0=    1 NMtDS0=    0 NMtDT0=    0
 Petite list used in FoFCou.
 Requested convergence on RMS density matrix=1.00D-08 within 128 cycles.
 Requested convergence on MAX density matrix=1.00D-06.
 Requested convergence on             energy=1.00D-06.
 No special actions if energy rises.
 SCF Done:  E(RB3LYP) =  -671.692267485     A.U. after   15 cycles
            NFock= 15  Conv=0.46D-08     -V/T= 2.0035
 SCF density gives NOpUse=  1 NOpAll=  1.

 **********************************************************************

            Population analysis using the SCF density.

 **********************************************************************

 Orbital symmetries:
 BldTbl:  Degeneracy threshold= 1.00D-02
       Occupied  (A) (A) (A) (A) (A) (A) (A) (A) (A) (A) (A) (A)
                 (A) (A) (A) (A) (A) (A) (A) (A) (A) (A) (A) (A)
                 (A) (A) (A) (A) (A) (A) (A) (A) (A) (A) (A) (A)
                 (A) (A) (A) (A) (A) (A) (A) (A) (A) (A) (A) (A)
                 (A) (A) (A) (A) (A) (A) (A)
       Virtual   (A) (A) (A) (A) (A) (A) (A) (A) (A) (A) (A) (A)
                 (A) (A) (A) (A) (A) (A) (A) (A) (A) (A) (A) (A)
                 (A) (A) (A) (A) (A) (A) (A) (A) (A) (A) (A) (A)
                 (A) (A) (A) (A) (A) (A) (A) (A) (A) (A) (A) (A)
                 (A) (A) (A) (A) (A) (A) (A) (A) (A) (A) (A) (A)
                 (A) (A) (A) (A) (A) (A) (A) (A) (A) (A) (A) (A)
                 (A) (A) (A) (A) (A) (A) (A) (A) (A) (A) (A) (A)
                 (A) (A) (A) (A) (A) (A) (A) (A) (A) (A) (A) (A)
                 (A) (A) (A) (A) (A) (A) (A) (A) (A) (A) (A) (A)
                 (A) (A) (A) (A) (A) (A) (A) (A) (A) (A) (A) (A)
                 (A) (A) (A) (A) (A) (A) (A) (A) (A) (A) (A) (A)
                 (A) (A) (A) (A) (A) (A) (A) (A) (A) (A) (A) (A)
                 (A) (A) (A) (A) (A) (A) (A) (A) (A) (A) (A) (A)
                 (A) (A) (A) (A) (A) (A) (A) (A) (A) (A) (A) (A)
                 (A) (A) (A) (A) (A) (A) (A) (A) (A) (A) (A) (A)
                 (A) (A) (A) (A) (A) (A) (A) (A) (A) (A) (A) (A)
                 (A) (A) (A) (A) (A) (A) (A) (A) (A) (A) (A) (A)
                 (A) (A) (A) (A) (A) (A) (A) (A) (A) (A) (A) (A)
                 (A) (A) (A) (A) (A) (A) (A) (A) (A) (A) (A) (A)
                 (A) (A) (A) (A) (A) (A) (A) (A) (A) (A) (A) (A)
                 (A) (A) (A) (A) (A) (A) (A) (A) (A) (A) (A) (A)
                 (A) (A) (A) (A) (A) (A) (A) (A) (A) (A) (A) (A)
                 (A) (A) (A) (A) (A) (A) (A) (A) (A) (A) (A) (A)
                 (A) (A) (A) (A) (A) (A) (A) (A) (A) (A) (A) (A)
                 (A) (A) (A) (A) (A) (A) (A) (A) (A) (A) (A) (A)
                 (A) (A) (A) (A) (A) (A) (A) (A) (A) (A) (A) (A)
                 (A) (A) (A) (A) (A) (A) (A) (A) (A) (A) (A) (A)
                 (A) (A) (A) (A) (A) (A) (A) (A) (A) (A) (A) (A)
                 (A) (A) (A) (A) (A) (A) (A) (A) (A) (A) (A) (A)
                 (A) (A) (A) (A) (A) (A) (A) (A) (A) (A) (A) (A)
                 (A) (A) (A) (A) (A) (A) (A) (A) (A) (A) (A) (A)
                 (A) (A) (A) (A) (A) (A) (A)
 The electronic state is 1-A.
 Alpha  occ. eigenvalues --  -19.18905 -19.12011 -14.29322 -10.32671 -10.21936
 Alpha  occ. eigenvalues --  -10.20524 -10.20430 -10.19116 -10.16421 -10.16365
 Alpha  occ. eigenvalues --  -10.16066 -10.15992 -10.15400 -10.15337 -10.14983
 Alpha  occ. eigenvalues --   -1.12812  -1.02718  -0.92552  -0.85309  -0.83720
 Alpha  occ. eigenvalues --   -0.77640  -0.73762  -0.72956  -0.69842  -0.69047
 Alpha  occ. eigenvalues --   -0.63667  -0.61696  -0.59556  -0.55138  -0.53332
 Alpha  occ. eigenvalues --   -0.51493  -0.49614  -0.48834  -0.48267  -0.47584
 Alpha  occ. eigenvalues --   -0.45742  -0.44856  -0.44038  -0.42819  -0.42541
 Alpha  occ. eigenvalues --   -0.41656  -0.41316  -0.39895  -0.38906  -0.38418
 Alpha  occ. eigenvalues --   -0.37373  -0.34183  -0.33945  -0.33567  -0.31236
 Alpha  occ. eigenvalues --   -0.30185  -0.29248  -0.26227  -0.24247  -0.18738
 Alpha virt. eigenvalues --   -0.08491  -0.03237  -0.01280  -0.00922  -0.00518
 Alpha virt. eigenvalues --    0.00483   0.00985   0.01122   0.01514   0.02335
 Alpha virt. eigenvalues --    0.02704   0.02933   0.03340   0.03912   0.04063
 Alpha virt. eigenvalues --    0.04666   0.05355   0.05660   0.06268   0.06468
 Alpha virt. eigenvalues --    0.06909   0.07362   0.07884   0.08391   0.08654
 Alpha virt. eigenvalues --    0.09367   0.09752   0.10211   0.10381   0.11023
 Alpha virt. eigenvalues --    0.11568   0.11592   0.11988   0.12108   0.12278
 Alpha virt. eigenvalues --    0.12572   0.12643   0.13310   0.13519   0.13770
 Alpha virt. eigenvalues --    0.14053   0.14447   0.14754   0.14980   0.15426
 Alpha virt. eigenvalues --    0.15720   0.15865   0.16094   0.16224   0.16630
 Alpha virt. eigenvalues --    0.16967   0.17158   0.17595   0.17927   0.18326
 Alpha virt. eigenvalues --    0.18624   0.19040   0.19679   0.19942   0.20258
 Alpha virt. eigenvalues --    0.20886   0.21078   0.21474   0.21637   0.21878
 Alpha virt. eigenvalues --    0.22360   0.22875   0.23798   0.24135   0.24259
 Alpha virt. eigenvalues --    0.24928   0.25023   0.25340   0.25857   0.26603
 Alpha virt. eigenvalues --    0.27247   0.27412   0.27718   0.27782   0.28014
 Alpha virt. eigenvalues --    0.28564   0.29653   0.30263   0.30314   0.30563
 Alpha virt. eigenvalues --    0.31181   0.31749   0.32429   0.32740   0.33514
 Alpha virt. eigenvalues --    0.33893   0.34018   0.34405   0.34715   0.35494
 Alpha virt. eigenvalues --    0.36007   0.37068   0.37571   0.38974   0.40051
 Alpha virt. eigenvalues --    0.40258   0.41033   0.41701   0.42724   0.43820
 Alpha virt. eigenvalues --    0.45480   0.46257   0.46946   0.49651   0.50859
 Alpha virt. eigenvalues --    0.51215   0.52409   0.53492   0.54016   0.54438
 Alpha virt. eigenvalues --    0.55766   0.56128   0.57125   0.57545   0.57610
 Alpha virt. eigenvalues --    0.58650   0.59364   0.60511   0.60725   0.61336
 Alpha virt. eigenvalues --    0.62303   0.62401   0.62740   0.63804   0.64414
 Alpha virt. eigenvalues --    0.65256   0.65544   0.66399   0.67091   0.67934
 Alpha virt. eigenvalues --    0.68169   0.69028   0.69993   0.70303   0.70779
 Alpha virt. eigenvalues --    0.71667   0.72119   0.73714   0.74487   0.74750
 Alpha virt. eigenvalues --    0.75496   0.76936   0.77040   0.78147   0.79140
 Alpha virt. eigenvalues --    0.79911   0.80297   0.81115   0.82799   0.84005
 Alpha virt. eigenvalues --    0.84952   0.85481   0.86433   0.87360   0.88196
 Alpha virt. eigenvalues --    0.88591   0.89619   0.90634   0.91079   0.91737
 Alpha virt. eigenvalues --    0.93393   0.94312   0.94456   0.95268   0.95847
 Alpha virt. eigenvalues --    0.96789   0.99492   1.00547   1.01143   1.03642
 Alpha virt. eigenvalues --    1.04723   1.05500   1.08157   1.08913   1.10673
 Alpha virt. eigenvalues --    1.11031   1.12848   1.14711   1.17030   1.18366
 Alpha virt. eigenvalues --    1.18770   1.19285   1.20974   1.23478   1.24886
 Alpha virt. eigenvalues --    1.26475   1.26961   1.31937   1.33202   1.34664
 Alpha virt. eigenvalues --    1.37383   1.40463   1.42310   1.42581   1.45095
 Alpha virt. eigenvalues --    1.46422   1.47134   1.48266   1.49581   1.50285
 Alpha virt. eigenvalues --    1.51456   1.52476   1.53175   1.53418   1.54842
 Alpha virt. eigenvalues --    1.55408   1.55822   1.57473   1.58410   1.60889
 Alpha virt. eigenvalues --    1.61669   1.62207   1.62702   1.65627   1.65707
 Alpha virt. eigenvalues --    1.67733   1.68203   1.69406   1.71457   1.72510
 Alpha virt. eigenvalues --    1.73560   1.74346   1.75439   1.75734   1.76222
 Alpha virt. eigenvalues --    1.76785   1.77761   1.79222   1.80638   1.81415
 Alpha virt. eigenvalues --    1.81652   1.83221   1.84221   1.84374   1.89940
 Alpha virt. eigenvalues --    1.91637   1.93128   1.93484   1.95063   1.96738
 Alpha virt. eigenvalues --    1.98376   2.00053   2.00746   2.01413   2.02311
 Alpha virt. eigenvalues --    2.03115   2.03718   2.06965   2.08940   2.09423
 Alpha virt. eigenvalues --    2.09937   2.11248   2.11693   2.12668   2.16221
 Alpha virt. eigenvalues --    2.17632   2.18727   2.22585   2.23185   2.25829
 Alpha virt. eigenvalues --    2.30000   2.30269   2.32534   2.33653   2.36025
 Alpha virt. eigenvalues --    2.38777   2.44389   2.44696   2.45768   2.46526
 Alpha virt. eigenvalues --    2.48589   2.51425   2.52870   2.54409   2.54936
 Alpha virt. eigenvalues --    2.57436   2.59300   2.60397   2.60442   2.62092
 Alpha virt. eigenvalues --    2.63606   2.64405   2.65660   2.66339   2.67942
 Alpha virt. eigenvalues --    2.70586   2.71444   2.71768   2.73555   2.74009
 Alpha virt. eigenvalues --    2.74537   2.75398   2.76893   2.77344   2.78420
 Alpha virt. eigenvalues --    2.78974   2.81362   2.83365   2.85482   2.85581
 Alpha virt. eigenvalues --    2.86410   2.88721   2.89138   2.90460   2.92830
 Alpha virt. eigenvalues --    2.94043   2.95084   2.96544   2.97522   2.98807
 Alpha virt. eigenvalues --    3.00412   3.01827   3.03669   3.04038   3.07007
 Alpha virt. eigenvalues --    3.12006   3.14704   3.18611   3.20205   3.23191
 Alpha virt. eigenvalues --    3.25179   3.28150   3.33804   3.36604   3.38433
 Alpha virt. eigenvalues --    3.39731   3.40741   3.49162   3.50888   3.52594
 Alpha virt. eigenvalues --    3.55084   3.55954   3.62395   3.70001   3.70387
 Alpha virt. eigenvalues --    3.75018   3.76359   3.78843   3.81732   3.88133
 Alpha virt. eigenvalues --    3.93748   4.02230   4.07603   4.08328   4.13107
 Alpha virt. eigenvalues --    4.17139   4.20290   4.27548   4.29092   4.39288
 Alpha virt. eigenvalues --    4.80832   4.82857   4.98744   5.03083   5.08127
 Alpha virt. eigenvalues --    5.18953   5.34386   5.64969   5.89285  23.64587
 Alpha virt. eigenvalues --   23.67897  23.84458  23.84718  23.94629  23.96765
 Alpha virt. eigenvalues --   24.01158  24.09782  24.11516  24.22086  24.26970
 Alpha virt. eigenvalues --   24.32480  35.69966  49.86085  50.00672
          Condensed to atoms (all electrons):
               1          2          3          4          5          6
     1  C    7.038874   0.026217  -1.288235  -0.176098  -0.016242   0.162935
     2  C    0.026217   6.995250  -0.422155  -0.952257  -0.193770  -0.259619
     3  C   -1.288235  -0.422155   7.426494  -0.182690   0.039956  -0.081543
     4  C   -0.176098  -0.952257  -0.182690   7.134131   0.464673   0.197141
     5  O   -0.016242  -0.193770   0.039956   0.464673   8.089066  -0.141872
     6  O    0.162935  -0.259619  -0.081543   0.197141  -0.141872   8.117545
     7  H    0.296450  -0.032379   0.076646   0.005803   0.002007  -0.003092
     8  H    0.305812  -0.029491   0.019946   0.011415   0.002417  -0.026716
     9  H    0.428481  -0.037550  -0.000729  -0.011244  -0.000509  -0.000599
    10  H    0.017401  -0.062866   0.339000   0.027847   0.001935   0.000996
    11  H    0.031781   0.019146   0.321429   0.008630  -0.005682   0.003216
    12  H   -0.097201   0.074029   0.058196  -0.028017   0.020943   0.166103
    13  C    0.000088   0.000463  -0.000012  -0.000283  -0.000059  -0.000009
    14  C    0.000161   0.002968  -0.000028  -0.005222  -0.000257  -0.000941
    15  C   -0.000274   0.003633   0.000575  -0.005752  -0.002532  -0.005792
    16  C   -0.017765  -0.006393   0.019604  -0.024301   0.012573  -0.047703
    17  C    0.033431  -0.038695  -0.024944  -0.075357  -0.008044   0.027784
    18  C   -0.003920   0.063705  -0.000367   0.049973  -0.027820   0.052620
    19  C   -0.003271   0.010936   0.004845   0.026950  -0.005086   0.010996
    20  C   -0.001260  -0.016483  -0.000358   0.020953   0.003780  -0.002786
    21  N    0.005170   0.016343  -0.007901  -0.030399   0.008566   0.000000
    22  H    0.000006  -0.000007  -0.000003   0.000021  -0.000002   0.000011
    23  H    0.000003   0.000094   0.000004  -0.000164   0.000005  -0.000050
    24  H   -0.000047  -0.000061   0.000021  -0.000079   0.000008  -0.000066
    25  H    0.001174  -0.000249  -0.001163   0.006593  -0.001015   0.003148
    26  H   -0.012126  -0.042167   0.008763   0.038345   0.019959  -0.034475
    27  H   -0.000057  -0.000065   0.000265  -0.000483  -0.000136  -0.000002
    28  H   -0.000019  -0.000254  -0.000022   0.000504   0.000068  -0.000049
    29  H    0.004175   0.003535  -0.006892  -0.015783   0.012408   0.002440
    30  H    0.000248   0.001442  -0.000696   0.001780  -0.002163   0.000453
               7          8          9         10         11         12
     1  C    0.296450   0.305812   0.428481   0.017401   0.031781  -0.097201
     2  C   -0.032379  -0.029491  -0.037550  -0.062866   0.019146   0.074029
     3  C    0.076646   0.019946  -0.000729   0.339000   0.321429   0.058196
     4  C    0.005803   0.011415  -0.011244   0.027847   0.008630  -0.028017
     5  O    0.002007   0.002417  -0.000509   0.001935  -0.005682   0.020943
     6  O   -0.003092  -0.026716  -0.000599   0.000996   0.003216   0.166103
     7  H    0.538398  -0.031662  -0.039822   0.006143  -0.002588  -0.002171
     8  H   -0.031662   0.635554  -0.018169   0.000654  -0.002550   0.023779
     9  H   -0.039822  -0.018169   0.515424  -0.002594   0.000026   0.002672
    10  H    0.006143   0.000654  -0.002594   0.543136  -0.019757  -0.001885
    11  H   -0.002588  -0.002550   0.000026  -0.019757   0.458972  -0.000483
    12  H   -0.002171   0.023779   0.002672  -0.001885  -0.000483   0.545566
    13  C   -0.000013   0.000034   0.000002  -0.000001   0.000006  -0.000005
    14  C   -0.000084   0.000039   0.000008  -0.000004   0.000005   0.001920
    15  C   -0.000059  -0.000086   0.000087  -0.000022  -0.000020   0.000597
    16  C    0.001318   0.001914  -0.000044  -0.000033  -0.000952   0.006916
    17  C   -0.000209  -0.001468  -0.000161   0.000417  -0.001202  -0.012915
    18  C   -0.002381  -0.002384   0.000468  -0.000681   0.003129   0.008938
    19  C   -0.000294  -0.000054   0.000016  -0.000076   0.000220   0.001413
    20  C    0.000250  -0.000110  -0.000042   0.000057  -0.000136  -0.003745
    21  N    0.000018   0.000521  -0.000057   0.000088  -0.000340  -0.001354
    22  H    0.000000   0.000001  -0.000000   0.000000   0.000000  -0.000029
    23  H   -0.000001   0.000003   0.000000  -0.000000   0.000000   0.000043
    24  H    0.000003  -0.000011   0.000000   0.000000  -0.000002   0.000112
    25  H   -0.000097  -0.000062   0.000002   0.000001   0.000018  -0.002875
    26  H    0.002086   0.002588  -0.000562   0.000334  -0.000811  -0.004568
    27  H   -0.000003   0.000011   0.000002  -0.000003  -0.000054   0.000039
    28  H    0.000004  -0.000002  -0.000001   0.000001   0.000001  -0.000071
    29  H   -0.000247   0.000359   0.000055   0.000167  -0.001583   0.000529
    30  H   -0.000019  -0.000031   0.000006  -0.000003   0.000313  -0.000123
              13         14         15         16         17         18
     1  C    0.000088   0.000161  -0.000274  -0.017765   0.033431  -0.003920
     2  C    0.000463   0.002968   0.003633  -0.006393  -0.038695   0.063705
     3  C   -0.000012  -0.000028   0.000575   0.019604  -0.024944  -0.000367
     4  C   -0.000283  -0.005222  -0.005752  -0.024301  -0.075357   0.049973
     5  O   -0.000059  -0.000257  -0.002532   0.012573  -0.008044  -0.027820
     6  O   -0.000009  -0.000941  -0.005792  -0.047703   0.027784   0.052620
     7  H   -0.000013  -0.000084  -0.000059   0.001318  -0.000209  -0.002381
     8  H    0.000034   0.000039  -0.000086   0.001914  -0.001468  -0.002384
     9  H    0.000002   0.000008   0.000087  -0.000044  -0.000161   0.000468
    10  H   -0.000001  -0.000004  -0.000022  -0.000033   0.000417  -0.000681
    11  H    0.000006   0.000005  -0.000020  -0.000952  -0.001202   0.003129
    12  H   -0.000005   0.001920   0.000597   0.006916  -0.012915   0.008938
    13  C    5.471335   0.376098  -0.232109   0.372975   0.064595   0.010409
    14  C    0.376098   9.191008  -2.735707   0.384190  -0.661953   0.315245
    15  C   -0.232109  -2.735707  11.252192  -0.499165  -1.045569  -0.028911
    16  C    0.372975   0.384190  -0.499165   9.439605   0.260808  -1.397948
    17  C    0.064595  -0.661953  -1.045569   0.260808   9.229348  -0.717373
    18  C    0.010409   0.315245  -0.028911  -1.397948  -0.717373   9.222128
    19  C    0.048127   0.245173  -0.219132   0.970333  -3.294860  -0.119988
    20  C   -0.224559  -1.612900  -0.847762  -3.739065   1.877811  -0.272485
    21  N    0.005131   0.002061  -0.048801   0.137060   0.057967  -0.313464
    22  H    0.384541  -0.019686  -0.017766  -0.013577   0.002108  -0.001482
    23  H    0.400718   0.061350  -0.117423   0.017495  -0.009259   0.005423
    24  H   -0.066151   0.422812  -0.084954  -0.005884  -0.003292   0.006494
    25  H    0.000481   0.012086  -0.112018   0.318637  -0.116400   0.023275
    26  H    0.001657  -0.017251  -0.056775   0.095050   0.687927  -0.363858
    27  H    0.000427   0.002541   0.045071   0.036749  -0.116277  -0.164436
    28  H    0.004223   0.006043  -0.194734  -0.054356   0.105553   0.036513
    29  H    0.000055  -0.001536   0.019323   0.025324  -0.080988  -0.029388
    30  H    0.000842   0.001228   0.000700  -0.024027   0.058444   0.020087
              19         20         21         22         23         24
     1  C   -0.003271  -0.001260   0.005170   0.000006   0.000003  -0.000047
     2  C    0.010936  -0.016483   0.016343  -0.000007   0.000094  -0.000061
     3  C    0.004845  -0.000358  -0.007901  -0.000003   0.000004   0.000021
     4  C    0.026950   0.020953  -0.030399   0.000021  -0.000164  -0.000079
     5  O   -0.005086   0.003780   0.008566  -0.000002   0.000005   0.000008
     6  O    0.010996  -0.002786   0.000000   0.000011  -0.000050  -0.000066
     7  H   -0.000294   0.000250   0.000018   0.000000  -0.000001   0.000003
     8  H   -0.000054  -0.000110   0.000521   0.000001   0.000003  -0.000011
     9  H    0.000016  -0.000042  -0.000057  -0.000000   0.000000   0.000000
    10  H   -0.000076   0.000057   0.000088   0.000000  -0.000000   0.000000
    11  H    0.000220  -0.000136  -0.000340   0.000000   0.000000  -0.000002
    12  H    0.001413  -0.003745  -0.001354  -0.000029   0.000043   0.000112
    13  C    0.048127  -0.224559   0.005131   0.384541   0.400718  -0.066151
    14  C    0.245173  -1.612900   0.002061  -0.019686   0.061350   0.422812
    15  C   -0.219132  -0.847762  -0.048801  -0.017766  -0.117423  -0.084954
    16  C    0.970333  -3.739065   0.137060  -0.013577   0.017495  -0.005884
    17  C   -3.294860   1.877811   0.057967   0.002108  -0.009259  -0.003292
    18  C   -0.119988  -0.272485  -0.313464  -0.001482   0.005423   0.006494
    19  C    9.634406  -1.366739  -0.147696  -0.001788   0.009633  -0.007546
    20  C   -1.366739  12.293732  -0.000823   0.025775  -0.026784   0.014000
    21  N   -0.147696  -0.000823   6.862950   0.000302   0.000918  -0.001066
    22  H   -0.001788   0.025775   0.000302   0.580588  -0.039718  -0.018174
    23  H    0.009633  -0.026784   0.000918  -0.039718   0.563530   0.012194
    24  H   -0.007546   0.014000  -0.001066  -0.018174   0.012194   0.549256
    25  H    0.081821   0.058997   0.001450   0.001369  -0.001299  -0.000413
    26  H   -0.165968   0.055085   0.015804  -0.000129  -0.000069  -0.000477
    27  H    0.607167  -0.101460  -0.017435  -0.000056  -0.000162  -0.000030
    28  H   -0.147107   0.536916  -0.002916   0.000040  -0.000435   0.001354
    29  H    0.038708  -0.027930   0.375703  -0.000020   0.000145  -0.000009
    30  H   -0.090931   0.028820   0.349674  -0.000024   0.000110  -0.000028
              25         26         27         28         29         30
     1  C    0.001174  -0.012126  -0.000057  -0.000019   0.004175   0.000248
     2  C   -0.000249  -0.042167  -0.000065  -0.000254   0.003535   0.001442
     3  C   -0.001163   0.008763   0.000265  -0.000022  -0.006892  -0.000696
     4  C    0.006593   0.038345  -0.000483   0.000504  -0.015783   0.001780
     5  O   -0.001015   0.019959  -0.000136   0.000068   0.012408  -0.002163
     6  O    0.003148  -0.034475  -0.000002  -0.000049   0.002440   0.000453
     7  H   -0.000097   0.002086  -0.000003   0.000004  -0.000247  -0.000019
     8  H   -0.000062   0.002588   0.000011  -0.000002   0.000359  -0.000031
     9  H    0.000002  -0.000562   0.000002  -0.000001   0.000055   0.000006
    10  H    0.000001   0.000334  -0.000003   0.000001   0.000167  -0.000003
    11  H    0.000018  -0.000811  -0.000054   0.000001  -0.001583   0.000313
    12  H   -0.002875  -0.004568   0.000039  -0.000071   0.000529  -0.000123
    13  C    0.000481   0.001657   0.000427   0.004223   0.000055   0.000842
    14  C    0.012086  -0.017251   0.002541   0.006043  -0.001536   0.001228
    15  C   -0.112018  -0.056775   0.045071  -0.194734   0.019323   0.000700
    16  C    0.318637   0.095050   0.036749  -0.054356   0.025324  -0.024027
    17  C   -0.116400   0.687927  -0.116277   0.105553  -0.080988   0.058444
    18  C    0.023275  -0.363858  -0.164436   0.036513  -0.029388   0.020087
    19  C    0.081821  -0.165968   0.607167  -0.147107   0.038708  -0.090931
    20  C    0.058997   0.055085  -0.101460   0.536916  -0.027930   0.028820
    21  N    0.001450   0.015804  -0.017435  -0.002916   0.375703   0.349674
    22  H    0.001369  -0.000129  -0.000056   0.000040  -0.000020  -0.000024
    23  H   -0.001299  -0.000069  -0.000162  -0.000435   0.000145   0.000110
    24  H   -0.000413  -0.000477  -0.000030   0.001354  -0.000009  -0.000028
    25  H    0.606829  -0.032839   0.002615  -0.002865   0.000519  -0.000140
    26  H   -0.032839   0.662986  -0.005252   0.004860  -0.014314   0.002110
    27  H    0.002615  -0.005252   0.572338  -0.030569   0.009382  -0.007053
    28  H   -0.002865   0.004860  -0.030569   0.596697  -0.002646   0.002796
    29  H    0.000519  -0.014314   0.009382  -0.002646   0.427482  -0.055891
    30  H   -0.000140   0.002110  -0.007053   0.002796  -0.055891   0.498792
 Mulliken charges:
               1
     1  C   -0.735893
     2  C    0.876701
     3  C   -0.298008
     4  C   -0.486628
     5  O   -0.273174
     6  O   -0.140075
     7  H    0.185995
     8  H    0.107751
     9  H    0.164835
    10  H    0.149749
    11  H    0.189267
    12  H    0.243647
    13  C   -0.619007
    14  C    0.030631
    15  C    0.933181
    16  C   -0.269338
    17  C   -0.197228
    18  C   -0.371522
    19  C   -0.120209
    20  C   -0.670748
    21  N   -0.267472
    22  H    0.117700
    23  H    0.123696
    24  H    0.182034
    25  H    0.152421
    26  H    0.154088
    27  H    0.166926
    28  H    0.140476
    29  H    0.316917
    30  H    0.213287
 Sum of Mulliken charges =  -0.00000
 Mulliken charges with hydrogens summed into heavy atoms:
               1
     1  C   -0.277312
     2  C    0.876701
     3  C    0.041007
     4  C   -0.486628
     5  O   -0.273174
     6  O    0.103572
    13  C   -0.377611
    14  C    0.212665
    15  C    0.933181
    16  C   -0.116917
    17  C   -0.043140
    18  C   -0.371522
    19  C    0.046717
    20  C   -0.530272
    21  N    0.262732
 DipInt: DoE/N= T F RetVal/Mat= T F Init=T NMatP=  1 IDeriv=0 Min/MaxMlt=  0  4
 Entering OneElI...
 OneElI was handed 25769286557 working-precision words.
 Multipole integrals L=0 to 4 MinM= 0 MaxM= 0.
 Requested accuracy = 0.1000D-12
 ShPair: Thresh= 1.00D-13 NBox=     0 BxSize= 0.00D+00 RnKept= 2.33D+01
         NSMCal=                13695 NSMKep=               11100
 PrmmSu-InSpLW:  IPartL=    0 NPrtUS=    1 NPrtUL=    1 DoSpLW=F IThBeg=    0 IThEnd=    0 NThAct=    1.
 PrsmSu:  NPrtUS=   1 ThrOK=F IAlg=1 NPAlg=1 LenDen=           0 ISkipM=0 DoSpLW=F IThBeg=    0 IThEnd=    0.
 Prism:   IPart=     0 DynPar=F LinDyn=F Incr=         111.
 PRISM was handed 25768556001 working-precision words and 11100 shell-pairs
 IPart=  0 NShTot=       11100 NBatch=         110 AvBLen=       100.9
 PrsmSu-ThDecC:  IPartSL=    0    0 NPrtUSL=    1    1 IThBeg=    0 IThEnd=    0 CPU=   -1 GPU=   -1 NThAct=    1.
 PrSmSu:  NxtVal=            112.
 Electronic moments (au):
       -110.00000000          2.22224934         -1.26475504         -0.09025754
      -4819.88257487       -801.09668567       -182.29452088         -8.04468221
         -5.91295639          3.45012381      -3660.16850537       -344.13361781
         -7.95181902        903.34467306       4816.37955745       -344.21720361
        130.23079753         90.91848172        -88.79130751       -151.96338716
    -353856.30001524     -12650.26263777       -978.36922632     -13626.29012871
      15852.45186531       1309.48685312        -25.95308341        363.63137364
         21.10961353     -34232.27332049      -8611.77745500      -1267.53244091
       2513.96673924        819.35141623       -948.89539659
 Electronic spatial extent (au):  <R**2>=           5803.2738
 DipInt: DoE/N= F T RetVal/Mat= T F Init=T NMatP=  1 IDeriv=0 Min/MaxMlt=  0  4
 Nuclear    moments (au):
        110.00000000          0.00000000          0.00000000          0.00000000
       4767.70701158        738.97553324        111.82592015         -0.00000000
         -0.00000000         -0.00000000       3930.89615178        327.03298899
         20.84914284       -882.39477020      -4850.45614527        338.43101675
       -108.93825395        -94.17130079        101.47360875        128.45623585
     337460.35628383       9886.98648406        277.87004905      13292.27350797
     -16281.83935598      -1425.13002546        170.95322759       -371.33053488
          2.38337107      31038.79751014       5438.40535061        656.62734895
      -2518.55326335       -830.39310869        923.24609251
 Total      moments (au):
         -0.00000000          2.22224934         -1.26475504         -0.09025754
        -52.17556328        -62.12115243        -70.46860073         -8.04468221
         -5.91295639          3.45012381        270.72764641        -17.10062882
         12.89732382         20.94990286        -34.07658782         -5.78618686
         21.29254358         -3.25281907         12.68230124        -23.50715131
     -16395.94373140      -2763.27615371       -700.49917727       -334.01662074
       -429.38749067       -115.64317234        145.00014418         -7.69916124
         23.49298460      -3193.47581035      -3173.37210439       -610.90509196
         -4.58652411        -11.04169246        -25.64930409
 Traceless Quadrup. (au):
          9.41287553         -0.53271362         -8.88016191         -8.04468221
         -5.91295639          3.45012381
 Charge=             -0.0000 electrons
 Dipole moment (field-independent basis, Debye):
    X=              5.6484    Y=             -3.2147    Z=             -0.2294  Tot=              6.5032
 Quadrupole moment (field-independent basis, Debye-Ang):
   XX=            -70.1779   YY=            -83.5551   ZZ=            -94.7827
   XY=            -10.8204   XZ=             -7.9531   YZ=              4.6405
 Traceless Quadrupole moment (field-independent basis, Debye-Ang):
   XX=             12.6606   YY=             -0.7165   ZZ=            -11.9441
   XY=            -10.8204   XZ=             -7.9531   YZ=              4.6405
 Octapole moment (field-independent basis, Debye-Ang**2):
  XXX=            192.6935  YYY=            -12.1716  ZZZ=              9.1798  XYY=             14.9113
  XXY=            -24.2544  XXZ=             -4.1184  XZZ=             15.1552  YZZ=             -2.3152
  YYZ=              9.0268  XYZ=            -16.7315
 Hexadecapole moment (field-independent basis, Debye-Ang**3):
 XXXX=          -6175.4986 YYYY=          -1040.7823 ZZZZ=           -263.8416 XXXY=           -125.8067
 XXXZ=           -161.7279 YYYX=            -43.5568 YYYZ=             54.6140 ZZZX=             -2.8999
 ZZZY=              8.8486 XXYY=          -1202.8161 XXZZ=          -1195.2441 YYZZ=           -230.0962
 XXYZ=             -1.7275 YYXZ=             -4.1588 ZZXY=             -9.6608
 N-N= 8.837025910179D+02 E-N=-3.333205374471D+03  KE= 6.693618689192D+02
 Entering OneElI...
 OneElI was handed 25769400092 working-precision words.
 Calculate electrostatic properties
    NBasis =   435  MinDer = 0  MaxDer = 0
    NGrid  =    30  NMatD  =   1
 Requested accuracy = 0.1000D-12
 ShPair: Thresh= 1.00D-13 NBox=     0 BxSize= 0.00D+00 RnKept= 2.33D+01
         NSMCal=                13695 NSMKep=               10194
 PrmmSu-InSpLW:  IPartL=    0 NPrtUS=   48 NPrtUL=    1 DoSpLW=F IThBeg=    0 IThEnd=   47 NThAct=   48.
 PrsmSu:  NPrtUS=  48 ThrOK=T IAlg=1 NPAlg=1 LenDen=           0 ISkipM=0 DoSpLW=F IThBeg=    0 IThEnd=   47.
 Prism:   IPart=     0 DynPar=F LinDyn=F Incr=          63.
 PRISM was handed   536652942 working-precision words and 10194 shell-pairs
 PRISM was handed   536652942 working-precision words and 10194 shell-pairs
 PRISM was handed   536652942 working-precision words and 10194 shell-pairs
 PRISM was handed   536652942 working-precision words and 10194 shell-pairs
 PRISM was handed   536652942 working-precision words and 10194 shell-pairs
 PRISM was handed   536652942 working-precision words and 10194 shell-pairs
 PRISM was handed   536652942 working-precision words and 10194 shell-pairs
 PRISM was handed   536652942 working-precision words and 10194 shell-pairs
 PRISM was handed   536652942 working-precision words and 10194 shell-pairs
 PRISM was handed   536652942 working-precision words and 10194 shell-pairs
 PRISM was handed   536652942 working-precision words and 10194 shell-pairs
 PRISM was handed   536652942 working-precision words and 10194 shell-pairs
 PRISM was handed   536652942 working-precision words and 10194 shell-pairs
 PRISM was handed   536652942 working-precision words and 10194 shell-pairs
 PRISM was handed   536652942 working-precision words and 10194 shell-pairs
 PRISM was handed   536652942 working-precision words and 10194 shell-pairs
 PRISM was handed   536652942 working-precision words and 10194 shell-pairs
 PRISM was handed   536652942 working-precision words and 10194 shell-pairs
 PRISM was handed   536652942 working-precision words and 10194 shell-pairs
 PRISM was handed   536652942 working-precision words and 10194 shell-pairs
 PRISM was handed   536652942 working-precision words and 10194 shell-pairs
 PRISM was handed   536652942 working-precision words and 10194 shell-pairs
 PRISM was handed   536652942 working-precision words and 10194 shell-pairs
 PRISM was handed   536652942 working-precision words and 10194 shell-pairs
 PRISM was handed   536652942 working-precision words and 10194 shell-pairs
 PRISM was handed   536652942 working-precision words and 10194 shell-pairs
 PRISM was handed   536652942 working-precision words and 10194 shell-pairs
 PRISM was handed   536652942 working-precision words and 10194 shell-pairs
 PRISM was handed   536652942 working-precision words and 10194 shell-pairs
 PRISM was handed   536652942 working-precision words and 10194 shell-pairs
 PRISM was handed   536652942 working-precision words and 10194 shell-pairs
 PRISM was handed   536652942 working-precision words and 10194 shell-pairs
 PRISM was handed   536652942 working-precision words and 10194 shell-pairs
 PRISM was handed   536652942 working-precision words and 10194 shell-pairs
 PRISM was handed   536652942 working-precision words and 10194 shell-pairs
 PRISM was handed   536652942 working-precision words and 10194 shell-pairs
 PRISM was handed   536652942 working-precision words and 10194 shell-pairs
 PRISM was handed   536652942 working-precision words and 10194 shell-pairs
 PRISM was handed   536652942 working-precision words and 10194 shell-pairs
 PRISM was handed   536652942 working-precision words and 10194 shell-pairs
 PRISM was handed   536652942 working-precision words and 10194 shell-pairs
 PRISM was handed   536652942 working-precision words and 10194 shell-pairs
 PRISM was handed   536652942 working-precision words and 10194 shell-pairs
 PRISM was handed   536652942 working-precision words and 10194 shell-pairs
 PRISM was handed   536652942 working-precision words and 10194 shell-pairs
 PRISM was handed   536652942 working-precision words and 10194 shell-pairs
 PRISM was handed   536652942 working-precision words and 10194 shell-pairs
 PRISM was handed   536652942 working-precision words and 10194 shell-pairs
 IPart= 27 NShTot=        6120 NBatch=         204 AvBLen=        30.0
 PrsmSu-ThDecC:  IPartSL=   27    0 NPrtUSL=   48    1 IThBeg=    0 IThEnd=   47 CPU=   -1 GPU=   -1 NThAct=   48.
 IPart= 35 NShTot=        6000 NBatch=         200 AvBLen=        30.0
 IPart= 33 NShTot=        6090 NBatch=         203 AvBLen=        30.0
 IPart= 32 NShTot=        6090 NBatch=         203 AvBLen=        30.0
 IPart= 21 NShTot=        6240 NBatch=         208 AvBLen=        30.0
 IPart= 31 NShTot=        6090 NBatch=         203 AvBLen=        30.0
 IPart= 39 NShTot=        5970 NBatch=         199 AvBLen=        30.0
 IPart= 19 NShTot=        6270 NBatch=         209 AvBLen=        30.0
 IPart= 16 NShTot=        6450 NBatch=         215 AvBLen=        30.0
 IPart= 28 NShTot=        6120 NBatch=         204 AvBLen=        30.0
 IPart= 38 NShTot=        6000 NBatch=         200 AvBLen=        30.0
 PrsmSu-ThDecC:  IPartSL=   35    0 NPrtUSL=   48    1 IThBeg=    0 IThEnd=   47 CPU=   -1 GPU=   -1 NThAct=   47.
 PrsmSu-ThDecC:  IPartSL=   16    0 NPrtUSL=   48    1 IThBeg=    0 IThEnd=   47 CPU=   -1 GPU=   -1 NThAct=   46.
 IPart= 34 NShTot=        6090 NBatch=         203 AvBLen=        30.0
 PrsmSu-ThDecC:  IPartSL=   28    0 NPrtUSL=   48    1 IThBeg=    0 IThEnd=   47 CPU=   -1 GPU=   -1 NThAct=   45.
 PrsmSu-ThDecC:  IPartSL=   34    0 NPrtUSL=   48    1 IThBeg=    0 IThEnd=   47 CPU=   -1 GPU=   -1 NThAct=   44.
 PrsmSu-ThDecC:  IPartSL=   38    0 NPrtUSL=   48    1 IThBeg=    0 IThEnd=   47 CPU=   -1 GPU=   -1 NThAct=   43.
 PrsmSu-ThDecC:  IPartSL=   32    0 NPrtUSL=   48    1 IThBeg=    0 IThEnd=   47 CPU=   -1 GPU=   -1 NThAct=   42.
 PrsmSu-ThDecC:  IPartSL=   33    0 NPrtUSL=   48    1 IThBeg=    0 IThEnd=   47 CPU=   -1 GPU=   -1 NThAct=   41.
 PrsmSu-ThDecC:  IPartSL=   19    0 NPrtUSL=   48    1 IThBeg=    0 IThEnd=   47 CPU=   -1 GPU=   -1 NThAct=   40.
 PrsmSu-ThDecC:  IPartSL=   39    0 NPrtUSL=   48    1 IThBeg=    0 IThEnd=   47 CPU=   -1 GPU=   -1 NThAct=   39.
 PrsmSu-ThDecC:  IPartSL=   31    0 NPrtUSL=   48    1 IThBeg=    0 IThEnd=   47 CPU=   -1 GPU=   -1 NThAct=   38.
 PrsmSu-ThDecC:  IPartSL=   21    0 NPrtUSL=   48    1 IThBeg=    0 IThEnd=   47 CPU=   -1 GPU=   -1 NThAct=   37.
 IPart=  1 NShTot=        7260 NBatch=         242 AvBLen=        30.0
 IPart=  5 NShTot=        7020 NBatch=         234 AvBLen=        30.0
 PrsmSu-ThDecC:  IPartSL=    1    0 NPrtUSL=   48    1 IThBeg=    0 IThEnd=   47 CPU=   -1 GPU=   -1 NThAct=   36.
 PrsmSu-ThDecC:  IPartSL=    5    0 NPrtUSL=   48    1 IThBeg=    0 IThEnd=   47 CPU=   -1 GPU=   -1 NThAct=   35.
 IPart=  8 NShTot=        6930 NBatch=         231 AvBLen=        30.0
 PrsmSu-ThDecC:  IPartSL=    8    0 NPrtUSL=   48    1 IThBeg=    0 IThEnd=   47 CPU=   -1 GPU=   -1 NThAct=   34.
 IPart=  0 NShTot=        7410 NBatch=         247 AvBLen=        30.0
 IPart= 37 NShTot=        6000 NBatch=         200 AvBLen=        30.0
 PrsmSu-ThDecC:  IPartSL=    0    0 NPrtUSL=   48    1 IThBeg=    0 IThEnd=   47 CPU=   -1 GPU=   -1 NThAct=   33.
 PrsmSu-ThDecC:  IPartSL=   37    0 NPrtUSL=   48    1 IThBeg=    0 IThEnd=   47 CPU=   -1 GPU=   -1 NThAct=   32.
 IPart=  2 NShTot=        7140 NBatch=         238 AvBLen=        30.0
 PrsmSu-ThDecC:  IPartSL=    2    0 NPrtUSL=   48    1 IThBeg=    0 IThEnd=   47 CPU=   -1 GPU=   -1 NThAct=   31.
 IPart= 36 NShTot=        6000 NBatch=         200 AvBLen=        30.0
 PrsmSu-ThDecC:  IPartSL=   36    0 NPrtUSL=   48    1 IThBeg=    0 IThEnd=   47 CPU=   -1 GPU=   -1 NThAct=   30.
 IPart= 30 NShTot=        6120 NBatch=         204 AvBLen=        30.0
 PrsmSu-ThDecC:  IPartSL=   30    0 NPrtUSL=   48    1 IThBeg=    0 IThEnd=   47 CPU=   -1 GPU=   -1 NThAct=   29.
 IPart= 22 NShTot=        6240 NBatch=         208 AvBLen=        30.0
 PrsmSu-ThDecC:  IPartSL=   22    0 NPrtUSL=   48    1 IThBeg=    0 IThEnd=   47 CPU=   -1 GPU=   -1 NThAct=   28.
 IPart= 12 NShTot=        6690 NBatch=         223 AvBLen=        30.0
 PrsmSu-ThDecC:  IPartSL=   12    0 NPrtUSL=   48    1 IThBeg=    0 IThEnd=   47 CPU=   -1 GPU=   -1 NThAct=   27.
 IPart= 47 NShTot=        5790 NBatch=         193 AvBLen=        30.0
 PrsmSu-ThDecC:  IPartSL=   47    0 NPrtUSL=   48    1 IThBeg=    0 IThEnd=   47 CPU=   -1 GPU=   -1 NThAct=   26.
 IPart= 46 NShTot=        5820 NBatch=         194 AvBLen=        30.0
 PrsmSu-ThDecC:  IPartSL=   46    0 NPrtUSL=   48    1 IThBeg=    0 IThEnd=   47 CPU=   -1 GPU=   -1 NThAct=   25.
 IPart=  9 NShTot=        6930 NBatch=         231 AvBLen=        30.0
 IPart=  7 NShTot=        6930 NBatch=         231 AvBLen=        30.0
 IPart=  6 NShTot=        6930 NBatch=         231 AvBLen=        30.0
 PrsmSu-ThDecC:  IPartSL=    9    0 NPrtUSL=   48    1 IThBeg=    0 IThEnd=   47 CPU=   -1 GPU=   -1 NThAct=   24.
 PrsmSu-ThDecC:  IPartSL=    7    0 NPrtUSL=   48    1 IThBeg=    0 IThEnd=   47 CPU=   -1 GPU=   -1 NThAct=   23.
 PrsmSu-ThDecC:  IPartSL=    6    0 NPrtUSL=   48    1 IThBeg=    0 IThEnd=   47 CPU=   -1 GPU=   -1 NThAct=   22.
 IPart= 44 NShTot=        5940 NBatch=         198 AvBLen=        30.0
 IPart=  3 NShTot=        7080 NBatch=         236 AvBLen=        30.0
 PrsmSu-ThDecC:  IPartSL=   44    0 NPrtUSL=   48    1 IThBeg=    0 IThEnd=   47 CPU=   -1 GPU=   -1 NThAct=   21.
 PrsmSu-ThDecC:  IPartSL=    3    0 NPrtUSL=   48    1 IThBeg=    0 IThEnd=   47 CPU=   -1 GPU=   -1 NThAct=   20.
 IPart= 13 NShTot=        6660 NBatch=         222 AvBLen=        30.0
 PrsmSu-ThDecC:  IPartSL=   13    0 NPrtUSL=   48    1 IThBeg=    0 IThEnd=   47 CPU=   -1 GPU=   -1 NThAct=   19.
 IPart= 15 NShTot=        6480 NBatch=         216 AvBLen=        30.0
 PrsmSu-ThDecC:  IPartSL=   15    0 NPrtUSL=   48    1 IThBeg=    0 IThEnd=   47 CPU=   -1 GPU=   -1 NThAct=   18.
 IPart= 45 NShTot=        5910 NBatch=         197 AvBLen=        30.0
 PrsmSu-ThDecC:  IPartSL=   45    0 NPrtUSL=   48    1 IThBeg=    0 IThEnd=   47 CPU=   -1 GPU=   -1 NThAct=   17.
 IPart= 42 NShTot=        5970 NBatch=         199 AvBLen=        30.0
 PrsmSu-ThDecC:  IPartSL=   42    0 NPrtUSL=   48    1 IThBeg=    0 IThEnd=   47 CPU=   -1 GPU=   -1 NThAct=   16.
 IPart= 40 NShTot=        5970 NBatch=         199 AvBLen=        30.0
 PrsmSu-ThDecC:  IPartSL=   40    0 NPrtUSL=   48    1 IThBeg=    0 IThEnd=   47 CPU=   -1 GPU=   -1 NThAct=   15.
 IPart= 25 NShTot=        6180 NBatch=         206 AvBLen=        30.0
 PrsmSu-ThDecC:  IPartSL=   25    0 NPrtUSL=   48    1 IThBeg=    0 IThEnd=   47 CPU=   -1 GPU=   -1 NThAct=   14.
 IPart= 26 NShTot=        6150 NBatch=         205 AvBLen=        30.0
 PrsmSu-ThDecC:  IPartSL=   26    0 NPrtUSL=   48    1 IThBeg=    0 IThEnd=   47 CPU=   -1 GPU=   -1 NThAct=   13.
 IPart= 24 NShTot=        6210 NBatch=         207 AvBLen=        30.0
 PrsmSu-ThDecC:  IPartSL=   24    0 NPrtUSL=   48    1 IThBeg=    0 IThEnd=   47 CPU=   -1 GPU=   -1 NThAct=   12.
 IPart= 23 NShTot=        6210 NBatch=         207 AvBLen=        30.0
 PrsmSu-ThDecC:  IPartSL=   23    0 NPrtUSL=   48    1 IThBeg=    0 IThEnd=   47 CPU=   -1 GPU=   -1 NThAct=   11.
 IPart= 14 NShTot=        6600 NBatch=         220 AvBLen=        30.0
 PrsmSu-ThDecC:  IPartSL=   14    0 NPrtUSL=   48    1 IThBeg=    0 IThEnd=   47 CPU=   -1 GPU=   -1 NThAct=   10.
 IPart= 20 NShTot=        6270 NBatch=         209 AvBLen=        30.0
 PrsmSu-ThDecC:  IPartSL=   20    0 NPrtUSL=   48    1 IThBeg=    0 IThEnd=   47 CPU=   -1 GPU=   -1 NThAct=    9.
 IPart= 41 NShTot=        5970 NBatch=         199 AvBLen=        30.0
 PrsmSu-ThDecC:  IPartSL=   41    0 NPrtUSL=   48    1 IThBeg=    0 IThEnd=   47 CPU=   -1 GPU=   -1 NThAct=    8.
 IPart= 43 NShTot=        5940 NBatch=         198 AvBLen=        30.0
 PrsmSu-ThDecC:  IPartSL=   43    0 NPrtUSL=   48    1 IThBeg=    0 IThEnd=   47 CPU=   -1 GPU=   -1 NThAct=    7.
 IPart= 17 NShTot=        6420 NBatch=         214 AvBLen=        30.0
 PrsmSu-ThDecC:  IPartSL=   17    0 NPrtUSL=   48    1 IThBeg=    0 IThEnd=   47 CPU=   -1 GPU=   -1 NThAct=    6.
 IPart= 11 NShTot=        6780 NBatch=         226 AvBLen=        30.0
 PrsmSu-ThDecC:  IPartSL=   11    0 NPrtUSL=   48    1 IThBeg=    0 IThEnd=   47 CPU=   -1 GPU=   -1 NThAct=    5.
 IPart= 18 NShTot=        6330 NBatch=         211 AvBLen=        30.0
 PrsmSu-ThDecC:  IPartSL=   18    0 NPrtUSL=   48    1 IThBeg=    0 IThEnd=   47 CPU=   -1 GPU=   -1 NThAct=    4.
 IPart= 10 NShTot=        6870 NBatch=         229 AvBLen=        30.0
 PrsmSu-ThDecC:  IPartSL=   10    0 NPrtUSL=   48    1 IThBeg=    0 IThEnd=   47 CPU=   -1 GPU=   -1 NThAct=    3.
 IPart=  4 NShTot=        7020 NBatch=         234 AvBLen=        30.0
 PrsmSu-ThDecC:  IPartSL=    4    0 NPrtUSL=   48    1 IThBeg=    0 IThEnd=   47 CPU=   -1 GPU=   -1 NThAct=    2.
 IPart= 29 NShTot=        6120 NBatch=         204 AvBLen=        30.0
 PrsmSu-ThDecC:  IPartSL=   29    0 NPrtUSL=   48    1 IThBeg=    0 IThEnd=   47 CPU=   -1 GPU=   -1 NThAct=    1.
 PrSmSu:  NxtVal=           3025.
 --------------------------------------------------------
       Center         ----      EFG at Nuclei      ----
                      3XX-RR        3YY-RR        3ZZ-RR
 --------------------------------------------------------
     1   Atom        0.019494     -0.064049      0.044555
     2   Atom        0.017470      0.154421     -0.171891
     3   Atom        0.076348      0.211823     -0.288170
     4   Atom        0.198484      0.090973     -0.289457
     5   Atom        1.191648     -0.424162     -0.767486
     6   Atom        0.426840     -1.398448      0.971608
     7   Atom        0.153599      0.125585     -0.279184
     8   Atom       -0.037179     -0.059980      0.097159
     9   Atom       -0.213441      0.143495      0.069946
    10   Atom       -0.230462      0.124739      0.105723
    11   Atom        0.117769     -0.279146      0.161377
    12   Atom        0.186537     -0.407988      0.221451
    13   Atom       -0.048093     -0.018414      0.066507
    14   Atom       -0.056039     -0.014070      0.070109
    15   Atom        0.099732      0.081567     -0.181299
    16   Atom        0.181140      0.108112     -0.289251
    17   Atom        0.072197      0.086416     -0.158614
    18   Atom        0.147723      0.094009     -0.241732
    19   Atom        0.129187      0.048460     -0.177647
    20   Atom        0.144147      0.138121     -0.282267
    21   Atom       -0.408773     -0.004029      0.412801
    22   Atom       -0.026336     -0.128483      0.154819
    23   Atom        0.164630     -0.108575     -0.056055
    24   Atom        0.159905     -0.136728     -0.023177
    25   Atom        0.123470     -0.282584      0.159114
    26   Atom       -0.257525      0.108857      0.148669
    27   Atom        0.123567     -0.270250      0.146682
    28   Atom       -0.261479      0.128644      0.132835
    29   Atom       -0.295554      0.111893      0.183661
    30   Atom        0.108384      0.003368     -0.111752
 --------------------------------------------------------
                        XY            XZ            YZ
 --------------------------------------------------------
     1   Atom        0.022624      0.007886     -0.005534
     2   Atom        0.073683     -0.118985     -0.088623
     3   Atom       -0.006784     -0.222627     -0.113782
     4   Atom       -0.188022     -0.189128      0.126698
     5   Atom        0.998566     -0.366341     -0.063077
     6   Atom       -0.574975      0.005072     -0.491445
     7   Atom        0.008226      0.030131     -0.102282
     8   Atom       -0.192070      0.114319      0.123339
     9   Atom        0.041402     -0.180729      0.020330
    10   Atom        0.108031      0.159906     -0.040994
    11   Atom        0.130603     -0.006676      0.027159
    12   Atom        0.191207      0.067862     -0.208594
    13   Atom        0.131180     -0.206495      0.086488
    14   Atom        0.133291     -0.258461      0.092975
    15   Atom       -0.009581     -0.092203      0.063353
    16   Atom        0.029242     -0.090972      0.076877
    17   Atom        0.040708     -0.043141      0.083183
    18   Atom       -0.119723     -0.077413      0.183060
    19   Atom        0.035547     -0.045717      0.041747
    20   Atom        0.051004     -0.071505      0.090095
    21   Atom        0.037361     -0.123230     -0.695051
    22   Atom       -0.241440      0.042192      0.036644
    23   Atom       -0.001792      0.011559     -0.243629
    24   Atom        0.008198      0.017586     -0.240467
    25   Atom        0.112086      0.026321     -0.084997
    26   Atom        0.126862      0.111089     -0.040544
    27   Atom        0.096854      0.029044     -0.122497
    28   Atom        0.102410      0.129834     -0.035238
    29   Atom        0.185348     -0.124018      0.013785
    30   Atom        0.105449      0.136945     -0.288301
 --------------------------------------------------------


 ---------------------------------------------------------------------------------
              Nuclear Quadrupole Coupling Constant in Principal Axis System
 ---------------------------------------------------------------------------------

       Atom             a.u.   MegaHertz   Gauss  10(-4) cm-1        Axes

              Baa    -0.5373     2.580     0.921     0.861  0.3451  0.7356  0.5829
    21 N(14)  Bbb    -0.4036     1.938     0.692     0.647  0.9343 -0.3285 -0.1386
              Bcc     0.9409    -4.519    -1.612    -1.507 -0.0895 -0.5924  0.8006
 

 ---------------------------------------------------------------------------------

 No NMR shielding tensors so no spin-rotation constants.
 Leave Link  601 at Thu Apr 21 11:01:33 2022, MaxMem= 25769803776 cpu:              13.5 elap:               0.3
 Calling FoFJK, ICntrl=      2127 FMM=F ISym2X=0 I1Cent= 0 IOpClX= 0 NMat=1 NMatS=1 NMatT=0.
 ***** Axes restored to original set *****
 -------------------------------------------------------------------
 Center     Atomic                   Forces (Hartrees/Bohr)
 Number     Number              X              Y              Z
 -------------------------------------------------------------------
      1        6           0.007630401    0.010793707   -0.003310906
      2        6           0.021181038   -0.000978980    0.004570802
      3        6          -0.008443972   -0.007692604    0.008574767
      4        6          -0.066355062    0.006067896   -0.018333698
      5        8           0.033954313    0.001639494    0.009493401
      6        8          -0.013104160    0.000490780   -0.020547574
      7        1           0.004370950   -0.001470289    0.004697937
      8        1           0.003565838   -0.004947424   -0.002800260
      9        1           0.000090710    0.000816107    0.000636857
     10        1          -0.003645666   -0.002534359    0.006900518
     11        1          -0.000105737   -0.001085684   -0.003186576
     12        1           0.018500120    0.000609094    0.012920464
     13        6           0.002643347    0.025200333   -0.019822611
     14        6          -0.007823253   -0.023987078   -0.007790059
     15        6          -0.002679275   -0.001373947    0.033017241
     16        6          -0.004013601   -0.012327686    0.019108912
     17        6           0.014772099    0.029216360   -0.023676508
     18        6          -0.001277280   -0.014228850   -0.002121507
     19        6          -0.006998294    0.057982631   -0.028874288
     20        6           0.021163902   -0.006124626   -0.006574451
     21        7          -0.006442364   -0.040301339    0.025158052
     22        1          -0.000138990   -0.002658321   -0.010071022
     23        1           0.002038007   -0.001765316   -0.002073870
     24        1          -0.001467024    0.002639689    0.005487019
     25        1           0.001513766    0.006758259   -0.000104907
     26        1          -0.002427265   -0.004658068    0.001381535
     27        1           0.000983229   -0.006970257    0.002421107
     28        1          -0.006735712    0.000905851    0.001109326
     29        1           0.003060832   -0.002632003    0.005316181
     30        1          -0.003810899   -0.007383367    0.008494120
[...]
 **** Fit       0.039769
 **** Fit       0.038496
 **** Fit       0.034698
 **** Fit       0.029841
 **** Fit       0.025228
 **** Fit       0.021401
 **** Fit       0.018382
 **** Fit       0.016019
 **** Fit       0.014147
 **** Fit       0.017632
 **** Fit       0.019872
 **** Fit       0.022581
 **** Fit       0.025856
 **** Fit       0.029711
 **** Fit       0.033886
 **** Fit       0.037552
 **** Fit       0.039311
 **** Fit       0.038072
 **** Fit       0.034208
 **** Fit       0.029275
 **** Fit       0.024631
 **** Fit       0.020812
 **** Fit       0.017816
 **** Fit       0.015474
 **** Fit       0.013621
 **** Fit       0.016775
 **** Fit       0.018869
 **** Fit       0.021388
 **** Fit       0.024405
 **** Fit       0.027911
 **** Fit       0.031645
 **** Fit       0.034862
 **** Fit       0.036376
 **** Fit       0.035293
 **** Fit       0.031935
 **** Fit       0.027592
 **** Fit       0.023422
 **** Fit       0.019918
 **** Fit       0.017111
 **** Fit       0.014879
 **** Fit       0.013088
 **** Fit       0.015801
 **** Fit       0.017688
 **** Fit       0.019914
 **** Fit       0.022510
 **** Fit       0.025420
 **** Fit       0.028387
 **** Fit       0.030823
 **** Fit       0.031901
 **** Fit       0.031051
 **** Fit       0.028503
 **** Fit       0.025124
 **** Fit       0.021737
 **** Fit       0.018755
 **** Fit       0.016264
 **** Fit       0.014214
 **** Fit       0.012527
 **** Fit       0.016398
 **** Fit       0.018286
 **** Fit       0.020408
 **** Fit       0.022676
 **** Fit       0.024861
 **** Fit       0.026551
 **** Fit       0.027243
 **** Fit       0.026630
 **** Fit       0.024855
 **** Fit       0.022419
 **** Fit       0.019839
 **** Fit       0.017427
 **** Fit       0.015303
 **** Fit       0.013479
 **** Fit       0.015073
 **** Fit       0.016634
 **** Fit       0.018318
 **** Fit       0.020032
 **** Fit       0.021596
 **** Fit       0.022742
 **** Fit       0.023184
 **** Fit       0.022768
 **** Fit       0.021571
 **** Fit       0.019863
 **** Fit       0.017948
 **** Fit       0.016046
 **** Fit       0.014277
 **** Fit       0.012689
 **** Fit       0.015047
 **** Fit       0.016370
 **** Fit       0.017662
 **** Fit       0.018790
 **** Fit       0.019585
 **** Fit       0.019888
 **** Fit       0.019615
 **** Fit       0.018806
 **** Fit       0.017602
 **** Fit       0.016179
 **** Fit       0.014686
 **** Fit       0.013228
 **** Fit       0.014618
 **** Fit       0.015603
 **** Fit       0.016438
 **** Fit       0.017015
 **** Fit       0.017241
 **** Fit       0.017065
 **** Fit       0.016507
 **** Fit       0.015639
 **** Fit       0.014565
 **** Fit       0.013386
 **** Fit       0.013829
 **** Fit       0.014464
 **** Fit       0.014901
 **** Fit       0.015080
 **** Fit       0.014967
 **** Fit       0.014570
 **** Fit       0.013926
 **** Fit       0.019285
 **** Fit       0.019640
 **** Fit       0.019767
 **** Fit       0.019667
 **** Fit       0.019364
 **** Fit       0.019143
 **** Fit       0.019996
 **** Fit       0.020663
 **** Fit       0.021079
 **** Fit       0.021201
 **** Fit       0.021028
 **** Fit       0.020601
 **** Fit       0.019985
 **** Fit       0.019245
 **** Fit       0.019158
 **** Fit       0.020303
 **** Fit       0.021331
 **** Fit       0.022143
 **** Fit       0.022640
 **** Fit       0.022755
 **** Fit       0.022487
 **** Fit       0.021898
 **** Fit       0.021090
 **** Fit       0.020158
 **** Fit       0.019172
 **** Fit       0.020108
 **** Fit       0.021451
 **** Fit       0.022680
 **** Fit       0.023664
 **** Fit       0.024262
 **** Fit       0.024374
 **** Fit       0.023992
 **** Fit       0.023211
 **** Fit       0.022175
 **** Fit       0.021022
 **** Fit       0.019842
 **** Fit       0.019433
 **** Fit       0.020969
 **** Fit       0.022510
 **** Fit       0.023946
 **** Fit       0.025112
 **** Fit       0.025820
 **** Fit       0.025933
 **** Fit       0.025435
 **** Fit       0.024449
 **** Fit       0.023174
 **** Fit       0.021789
 **** Fit       0.020407
 **** Fit       0.019077
 **** Fit       0.019994
 **** Fit       0.021681
 **** Fit       0.023395
 **** Fit       0.025010
 **** Fit       0.026334
 **** Fit       0.027141
 **** Fit       0.027257
 **** Fit       0.026658
 **** Fit       0.025494
 **** Fit       0.024005
 **** Fit       0.022406
 **** Fit       0.020835
 **** Fit       0.019349
 **** Fit       0.020397
 **** Fit       0.022199
 **** Fit       0.024036
 **** Fit       0.025775
 **** Fit       0.027205
 **** Fit       0.028076
 **** Fit       0.028196
 **** Fit       0.027532
 **** Fit       0.026246
 **** Fit       0.024600
 **** Fit       0.022833
 **** Fit       0.021102
 **** Fit       0.019478
 **** Fit       0.020634
 **** Fit       0.022509
 **** Fit       0.024421
 **** Fit       0.026225
 **** Fit       0.027705
 **** Fit       0.028605
 **** Fit       0.028728
 **** Fit       0.028040
 **** Fit       0.026694
 **** Fit       0.024952
 **** Fit       0.023065
 **** Fit       0.021206
 **** Fit       0.019465
 **** Fit       0.020715
 **** Fit       0.022638
 **** Fit       0.024596
 **** Fit       0.026438
 **** Fit       0.027944
 **** Fit       0.028864
 **** Fit       0.029001
 **** Fit       0.028313
 **** Fit       0.026937
 **** Fit       0.025127
 **** Fit       0.023141
 **** Fit       0.021171
 **** Fit       0.022634
 **** Fit       0.024643
 **** Fit       0.026542
 **** Fit       0.028107
 **** Fit       0.029080
 **** Fit       0.029254
 **** Fit       0.028566
 **** Fit       0.027142
 **** Fit       0.025237
 **** Fit       0.023130
 **** Fit       0.021039
 **** Fit       0.022534
 **** Fit       0.024627
 **** Fit       0.026640
 **** Fit       0.028340
 **** Fit       0.029440
 **** Fit       0.029687
 **** Fit       0.028983
 **** Fit       0.027449
 **** Fit       0.025378
 **** Fit       0.023094
 **** Fit       0.020851
 **** Fit       0.018789
 **** Fit       0.020252
 **** Fit       0.022343
 **** Fit       0.024554
 **** Fit       0.026742
 **** Fit       0.028662
 **** Fit       0.029973
 **** Fit       0.030338
 **** Fit       0.029599
 **** Fit       0.027887
 **** Fit       0.025568
 **** Fit       0.023049
 **** Fit       0.020624
 **** Fit       0.018441
 **** Fit       0.016543
 **** Fit       0.019873
 **** Fit       0.022024
 **** Fit       0.024354
 **** Fit       0.026738
 **** Fit       0.028914
 **** Fit       0.030480
 **** Fit       0.030994
 **** Fit       0.030215
 **** Fit       0.028296
 **** Fit       0.025701
 **** Fit       0.022935
 **** Fit       0.020335
 **** Fit       0.018047
 **** Fit       0.016094
 **** Fit       0.019343
 **** Fit       0.021512
 **** Fit       0.023910
 **** Fit       0.026424
 **** Fit       0.028791
 **** Fit       0.030559
 **** Fit       0.031202
 **** Fit       0.030408
 **** Fit       0.028342
 **** Fit       0.025555
 **** Fit       0.022628
 **** Fit       0.019925
 **** Fit       0.017583
 **** Fit       0.015608
 **** Fit       0.018638
 **** Fit       0.020753
 **** Fit       0.023111
 **** Fit       0.025611
 **** Fit       0.027993
 **** Fit       0.029802
 **** Fit       0.030489
 **** Fit       0.029726
 **** Fit       0.027675
 **** Fit       0.024901
 **** Fit       0.021997
 **** Fit       0.019325
 **** Fit       0.017017
 **** Fit       0.015074
 **** Fit       0.017756
 **** Fit       0.019735
 **** Fit       0.021930
 **** Fit       0.024242
 **** Fit       0.026429
 **** Fit       0.028077
 **** Fit       0.028704
 **** Fit       0.028022
 **** Fit       0.026176
 **** Fit       0.023658
 **** Fit       0.020990
 **** Fit       0.018503
 **** Fit       0.016328
 **** Fit       0.014476
 **** Fit       0.016726
 **** Fit       0.018501
 **** Fit       0.020438
 **** Fit       0.022436
 **** Fit       0.024281
 **** Fit       0.025638
 **** Fit       0.026138
 **** Fit       0.025574
 **** Fit       0.024056
 **** Fit       0.021953
 **** Fit       0.019670
 **** Fit       0.017484
 **** Fit       0.015520
 **** Fit       0.013810
 **** Fit       0.015596
 **** Fit       0.017135
 **** Fit       0.018772
 **** Fit       0.020411
 **** Fit       0.021875
 **** Fit       0.022918
 **** Fit       0.023287
 **** Fit       0.022849
 **** Fit       0.021680
 **** Fit       0.020027
 **** Fit       0.018173
 **** Fit       0.016331
 **** Fit       0.014619
 **** Fit       0.013084
 **** Fit       0.015727
 **** Fit       0.017071
 **** Fit       0.018375
 **** Fit       0.019501
 **** Fit       0.020278
 **** Fit       0.020545
 **** Fit       0.020221
 **** Fit       0.019353
 **** Fit       0.018095
 **** Fit       0.016632
 **** Fit       0.015121
 **** Fit       0.013663
 **** Fit       0.015436
 **** Fit       0.016460
 **** Fit       0.017320
 **** Fit       0.017900
 **** Fit       0.018098
 **** Fit       0.017865
 **** Fit       0.017229
 **** Fit       0.016280
 **** Fit       0.015138
 **** Fit       0.013912
 **** Fit       0.014726
 **** Fit       0.015388
 **** Fit       0.015828
 **** Fit       0.015982
 **** Fit       0.015817
 **** Fit       0.015348
 **** Fit       0.014628
 **** Fit       0.013734
 **** Fit       0.014164
 **** Fit       0.014047
 **** Fit       0.019276
 **** Fit       0.019377
 **** Fit       0.019249
 **** Fit       0.019468
 **** Fit       0.020087
 **** Fit       0.020463
 **** Fit       0.020559
 **** Fit       0.020373
 **** Fit       0.019941
 **** Fit       0.019320
 **** Fit       0.019576
 **** Fit       0.020500
 **** Fit       0.021218
 **** Fit       0.021648
 **** Fit       0.021739
 **** Fit       0.021487
 **** Fit       0.020940
 **** Fit       0.020179
 **** Fit       0.019286
 **** Fit       0.020404
 **** Fit       0.021452
 **** Fit       0.022270
 **** Fit       0.022757
 **** Fit       0.022844
 **** Fit       0.022525
 **** Fit       0.021862
 **** Fit       0.020956
 **** Fit       0.019913
 **** Fit       0.019813
 **** Fit       0.021102
 **** Fit       0.022259
 **** Fit       0.023167
 **** Fit       0.023705
 **** Fit       0.023789
 **** Fit       0.023411
 **** Fit       0.022643
 **** Fit       0.021605
 **** Fit       0.020423
 **** Fit       0.019191
 **** Fit       0.020254
 **** Fit       0.021632
 **** Fit       0.022875
 **** Fit       0.023851
 **** Fit       0.024427
 **** Fit       0.024510
 **** Fit       0.024088
 **** Fit       0.023238
 **** Fit       0.022093
 **** Fit       0.020791
 **** Fit       0.019442
 **** Fit       0.020542
 **** Fit       0.021986
 **** Fit       0.023288
 **** Fit       0.024311
 **** Fit       0.024915
 **** Fit       0.025000
 **** Fit       0.024550
 **** Fit       0.023643
 **** Fit       0.022415
 **** Fit       0.021016
 **** Fit       0.022182
 **** Fit       0.023532
 **** Fit       0.024595
 **** Fit       0.025226
 **** Fit       0.025319
 **** Fit       0.024853
 **** Fit       0.023902
 **** Fit       0.022604
 **** Fit       0.021119
 **** Fit       0.022257
 **** Fit       0.023661
 **** Fit       0.024777
 **** Fit       0.025450
 **** Fit       0.025562
 **** Fit       0.025083
 **** Fit       0.024083
 **** Fit       0.022709
 **** Fit       0.021132
 **** Fit       0.022237
 **** Fit       0.023717
 **** Fit       0.024913
 **** Fit       0.025653
 **** Fit       0.025800
 **** Fit       0.025305
 **** Fit       0.024240
 **** Fit       0.022767
 **** Fit       0.021081
 **** Fit       0.019349
 **** Fit       0.020447
 **** Fit       0.022120
 **** Fit       0.023692
 **** Fit       0.024995
 **** Fit       0.025829
 **** Fit       0.026025
 **** Fit       0.025513
 **** Fit       0.024366
 **** Fit       0.022775
 **** Fit       0.020967
 **** Fit       0.019132
 **** Fit       0.017393
 **** Fit       0.020132
 **** Fit       0.021864
 **** Fit       0.023526
 **** Fit       0.024937
 **** Fit       0.025873
 **** Fit       0.026125
 **** Fit       0.025599
 **** Fit       0.024374
 **** Fit       0.022671
 **** Fit       0.020753
 **** Fit       0.018832
 **** Fit       0.017034
 **** Fit       0.019652
 **** Fit       0.021407
 **** Fit       0.023118
 **** Fit       0.024600
 **** Fit       0.025608
 **** Fit       0.025907
 **** Fit       0.025381
 **** Fit       0.024113
 **** Fit       0.022348
 **** Fit       0.020373
 **** Fit       0.018413
 **** Fit       0.016595
 **** Fit       0.018981
 **** Fit       0.020697
 **** Fit       0.022384
 **** Fit       0.023858
 **** Fit       0.024874
 **** Fit       0.025190
 **** Fit       0.024687
 **** Fit       0.023445
 **** Fit       0.021709
 **** Fit       0.019767
 **** Fit       0.017841
 **** Fit       0.016057
 **** Fit       0.018114
 **** Fit       0.019724
 **** Fit       0.021302
 **** Fit       0.022676
 **** Fit       0.023623
 **** Fit       0.023923
 **** Fit       0.023467
 **** Fit       0.022327
 **** Fit       0.020722
 **** Fit       0.018912
 **** Fit       0.017103
 **** Fit       0.015414
 **** Fit       0.017083
 **** Fit       0.018532
 **** Fit       0.019933
 **** Fit       0.021138
 **** Fit       0.021959
 **** Fit       0.022217
 **** Fit       0.021826
 **** Fit       0.020843
 **** Fit       0.019445
 **** Fit       0.017844
 **** Fit       0.016217
 **** Fit       0.014672
 **** Fit       0.015942
 **** Fit       0.017199
 **** Fit       0.018393
 **** Fit       0.019400
 **** Fit       0.020075
 **** Fit       0.020283
 **** Fit       0.019963
 **** Fit       0.019157
 **** Fit       0.017995
 **** Fit       0.016637
 **** Fit       0.015225
 **** Fit       0.015815
 **** Fit       0.016803
 **** Fit       0.017620
 **** Fit       0.018157
 **** Fit       0.018321
 **** Fit       0.018069
 **** Fit       0.017430
 **** Fit       0.016493
 **** Fit       0.015373
 **** Fit       0.014177
 **** Fit       0.015258
 **** Fit       0.015911
 **** Fit       0.016334
 **** Fit       0.016463
 **** Fit       0.016270
 **** Fit       0.015772
 **** Fit       0.015027
 **** Fit       0.014117
 **** Fit       0.014666
 **** Fit       0.014770
 **** Fit       0.014623
 **** Fit       0.014236
 **** Fit       0.019494
 **** Fit       0.019570
 **** Fit       0.019394
 **** Fit       0.019968
 **** Fit       0.020324
 **** Fit       0.020395
 **** Fit       0.020177
 **** Fit       0.019704
 **** Fit       0.020652
 **** Fit       0.021037
 **** Fit       0.021104
 **** Fit       0.020849
 **** Fit       0.020309
 **** Fit       0.020488
 **** Fit       0.021193
 **** Fit       0.021602
 **** Fit       0.021666
 **** Fit       0.021380
 **** Fit       0.020783
 **** Fit       0.019949
 **** Fit       0.021582
 **** Fit       0.022012
 **** Fit       0.022076
 **** Fit       0.021766
 **** Fit       0.021123
 **** Fit       0.021837
 **** Fit       0.022288
 **** Fit       0.022356
 **** Fit       0.022028
 **** Fit       0.021346
 **** Fit       0.022464
 **** Fit       0.022541
 **** Fit       0.022199
 **** Fit       0.021479
 **** Fit       0.022046
 **** Fit       0.022561
 **** Fit       0.022653
 **** Fit       0.022299
 **** Fit       0.021539
 **** Fit       0.020469
 **** Fit       0.021093
 **** Fit       0.022006
 **** Fit       0.022565
 **** Fit       0.022679
 **** Fit       0.022314
 **** Fit       0.021514
 **** Fit       0.020385
 **** Fit       0.019058
 **** Fit       0.019670
 **** Fit       0.020860
 **** Fit       0.021820
 **** Fit       0.022422
 **** Fit       0.022559
 **** Fit       0.022190
 **** Fit       0.021358
 **** Fit       0.020180
 **** Fit       0.018803
 **** Fit       0.017359
 **** Fit       0.019234
 **** Fit       0.020439
 **** Fit       0.021424
 **** Fit       0.022053
 **** Fit       0.022209
 **** Fit       0.021843
 **** Fit       0.021001
 **** Fit       0.019806
 **** Fit       0.018411
 **** Fit       0.016955
 **** Fit       0.018611
 **** Fit       0.019792
 **** Fit       0.020764
 **** Fit       0.021390
 **** Fit       0.021554
 **** Fit       0.021205
 **** Fit       0.020385
 **** Fit       0.019217
 **** Fit       0.017852
 **** Fit       0.016428
 **** Fit       0.017801
 **** Fit       0.018913
 **** Fit       0.019828
 **** Fit       0.020420
 **** Fit       0.020579
 **** Fit       0.020258
 **** Fit       0.019496
 **** Fit       0.018404
 **** Fit       0.017121
 **** Fit       0.015774
 **** Fit       0.016831
 **** Fit       0.017839
 **** Fit       0.018662
 **** Fit       0.019192
 **** Fit       0.019335
 **** Fit       0.019052
 **** Fit       0.018376
 **** Fit       0.017398
 **** Fit       0.016238
 **** Fit       0.015007
 **** Fit       0.016633
 **** Fit       0.017346
 **** Fit       0.017801
 **** Fit       0.017924
 **** Fit       0.017684
 **** Fit       0.017106
 **** Fit       0.016262
 **** Fit       0.015247
 **** Fit       0.015972
 **** Fit       0.016351
 **** Fit       0.016453
 **** Fit       0.016255
 **** Fit       0.015775
 **** Fit       0.015066
 **** Fit       0.020007
 **** Fit       0.019741
 **** Fit       0.019723
 **** Fit       0.019804
 **** Fit       0.019536
 **** Fit       0.018945
 **** Fit       0.018921
 **** Fit       0.019340
 **** Fit       0.019428
 **** Fit       0.019164
 **** Fit       0.018573
 **** Fit       0.017724
 **** Fit       0.018344
 **** Fit       0.018758
 **** Fit       0.018850
 **** Fit       0.018597
 **** Fit       0.018024
 **** Fit       0.017195
 **** Fit       0.017582
 **** Fit       0.017975
 **** Fit       0.018066
 **** Fit       0.017831
 **** Fit       0.017293
 **** Fit       0.016512
 **** Fit       0.017021
 **** Fit       0.017105
 **** Fit       0.016894
 **** Fit       0.016406
 -----------------------------------------------------------------
 Leave Link  602 at Thu Apr 21 11:29:45 2022, MaxMem=   104857600 cpu:               3.4 elap:               3.4
 (Enter /opt/ohpc/pub/libs/gaussian/g16-A.03/haswell/g16/l9999.exe)

 Test job not archived.
 1\1\GINC-CASCADEB029\SP\RB3LYP\6-311++G(d,p)\C12H15N1O2\MNG228\21-Apr-
 2022\0\\#P B3LYP/6-311++G(d,p) Geom=Allcheck SCF=Tight EmpiricalDisper
 sion=GD3BJ Pop=CHELPG SP IOp(6/33=2)\\MAA1-AS1 geo opt\\0,1\C,0,13.583
 5372865,12.7630110482,13.2305633709\C,0,12.2056446997,12.2374457462,12
 .918472715\C,0,11.5466304719,11.3933275706,13.714815796\C,0,11.5166554
 25,12.6674805849,11.6552349882\O,0,10.4247057083,12.2874918329,11.3129
 998043\O,0,12.1878062387,13.5402864494,10.8619453208\H,0,13.5909722945
 ,13.855049016,13.3281337312\H,0,14.3096211071,12.4853919261,12.4580150
 768\H,0,13.9438848307,12.3546484824,14.174730625\H,0,11.9806567033,11.
 0395227817,14.6424161825\H,0,10.557738494,11.0449434677,13.4455091092\
 H,0,13.0313890113,13.7964024347,11.2534079277\C,0,8.5889925234,18.8627
 965445,5.6402546485\C,0,9.4124814057,18.1255308347,6.3956594132\C,0,9.
 0615713725,17.0567287306,7.3326813561\C,0,10.0752366712,16.4030539984,
 8.0494927073\C,0,9.8043909117,15.3834224663,8.9505781889\C,0,8.4817154
 78,14.9695822967,9.1746001657\C,0,7.4558385526,15.6163920074,8.4596957
 144\C,0,7.7427846779,16.6314439623,7.5638987449\N,0,8.1907979335,13.98
 92209505,10.1075461355\H,0,8.9767769137,19.6295825597,4.9810633913\H,0
 ,7.5126341382,18.7321704509,5.6502765147\H,0,10.4799906621,18.32570441
 9,6.3234451858\H,0,11.1064892634,16.702850821,7.8899223347\H,0,10.6114
 503052,14.8955108027,9.4835794312\H,0,6.4257564548,15.3137019773,8.619
 8290893\H,0,6.9243532502,17.1023047919,7.0318353742\H,0,8.9448744909,1
 3.3748605565,10.3902342289\H,0,7.2996227239,13.5281404887,10.013162727
 8\\Version=ES64L-G16RevA.03\State=1-A\HF=-671.736717\RMSD=6.308e-09\Di
 pole=1.7301616,-1.2008971,1.960125\Quadrupole=9.1594648,-8.2313791,-0.
 9280857,-1.3794257,9.4110578,-6.0212695\PG=C01 [X(C12H15N1O2)]\\@


 EXPERIENCE IS A WONDERFUL THING.  IT ENABLES
 YOU TO RECOGNIZE A MISTAKE WHEN YOU MAKE IT AGAIN.
           - BACK OF A SUGAR PACKET
 Job cpu time:       0 days  0 hours  8 minutes 51.1 seconds.
 Elapsed time:       0 days  0 hours  8 minutes 53.1 seconds.
 File lengths (MBytes):  RWF=    336 Int=      0 D2E=      0 Chk=     32 Scr=     32
 Normal termination of Gaussian 16 at Thu Apr 21 11:29:45 2022.
