 Entering Gaussian System, Link 0=g16
 Initial command:
 /opt/ohpc/pub/libs/gaussian/g16-A.03/haswell/g16/l1.exe "g16_scratch/Gau-219250.inp" -scrdir="g16_scratch/"
 Entering Link 1 = /opt/ohpc/pub/libs/gaussian/g16-A.03/haswell/g16/l1.exe PID=    219251.
  
 Copyright (c) 1988,1990,1992,1993,1995,1998,2003,2009,2016,
            Gaussian, Inc.  All Rights Reserved.
  
 This is part of the Gaussian(R) 16 program.  It is based on
 the Gaussian(R) 09 system (copyright 2009, Gaussian, Inc.),
 the Gaussian(R) 03 system (copyright 2003, Gaussian, Inc.),
 the Gaussian(R) 98 system (copyright 1998, Gaussian, Inc.),
 the Gaussian(R) 94 system (copyright 1995, Gaussian, Inc.),
 the Gaussian 92(TM) system (copyright 1992, Gaussian, Inc.),
 the Gaussian 90(TM) system (copyright 1990, Gaussian, Inc.),
 the Gaussian 88(TM) system (copyright 1988, Gaussian, Inc.),
 the Gaussian 86(TM) system (copyright 1986, Carnegie Mellon
 University), and the Gaussian 82(TM) system (copyright 1983,
 Carnegie Mellon University). Gaussian is a federally registered
 trademark of Gaussian, Inc.
  
 This software contains proprietary and confidential information,
 including trade secrets, belonging to Gaussian, Inc.
  
 This software is provided under written license and may be
 used, copied, transmitted, or stored only in accord with that
 written license.
  
 The following legend is applicable only to US Government
 contracts under FAR:
  
                    RESTRICTED RIGHTS LEGEND
  
 Use, reproduction and disclosure by the US Government is
 subject to restrictions as set forth in subparagraphs (a)
 and (c) of the Commercial Computer Software - Restricted
 Rights clause in FAR 52.227-19.
  
 Gaussian, Inc.
 340 Quinnipiac St., Bldg. 40, Wallingford CT 06492
  
  
 ---------------------------------------------------------------
 Warning -- This program may not be used in any manner that
 competes with the business of Gaussian, Inc. or will provide
 assistance to any competitor of Gaussian, Inc.  The licensee
 of this program is prohibited from giving any competitor of
 Gaussian, Inc. access to this program.  By using this program,
 the user acknowledges that Gaussian, Inc. is engaged in the
 business of creating and licensing software in the field of
 computational chemistry and represents and warrants to the
 licensee that it is not a competitor of Gaussian, Inc. and that
 it will not use this program in any manner prohibited above.
 ---------------------------------------------------------------
  

 Cite this work as:
 Gaussian 16, Revision A.03,
 M. J. Frisch, G. W. Trucks, H. B. Schlegel, G. E. Scuseria, 
 M. A. Robb, J. R. Cheeseman, G. Scalmani, V. Barone, 
 G. A. Petersson, H. Nakatsuji, X. Li, M. Caricato, A. V. Marenich, 
 J. Bloino, B. G. Janesko, R. Gomperts, B. Mennucci, H. P. Hratchian, 
 J. V. Ortiz, A. F. Izmaylov, J. L. Sonnenberg, D. Williams-Young, 
 F. Ding, F. Lipparini, F. Egidi, J. Goings, B. Peng, A. Petrone, 
 T. Henderson, D. Ranasinghe, V. G. Zakrzewski, J. Gao, N. Rega, 
 G. Zheng, W. Liang, M. Hada, M. Ehara, K. Toyota, R. Fukuda, 
 J. Hasegawa, M. Ishida, T. Nakajima, Y. Honda, O. Kitao, H. Nakai, 
 T. Vreven, K. Throssell, J. A. Montgomery, Jr., J. E. Peralta, 
 F. Ogliaro, M. J. Bearpark, J. J. Heyd, E. N. Brothers, K. N. Kudin, 
 V. N. Staroverov, T. A. Keith, R. Kobayashi, J. Normand, 
 K. Raghavachari, A. P. Rendell, J. C. Burant, S. S. Iyengar, 
 J. Tomasi, M. Cossi, J. M. Millam, M. Klene, C. Adamo, R. Cammi, 
 J. W. Ochterski, R. L. Martin, K. Morokuma, O. Farkas, 
 J. B. Foresman, and D. J. Fox, Gaussian, Inc., Wallingford CT, 2016.
 
 ******************************************
 Gaussian 16:  ES64L-G16RevA.03 25-Dec-2016
                21-Apr-2022 
 ******************************************
 %Mem=192GB
 %NProcShared=48
 Will use up to   48 processors via shared memory.
 %Chk=MAA1-AS1-2.chk
 ---------------------------------------------------------------------
 #n B3LYP/6-311++G(d,p) Opt freq EmpiricalDispersion=GD3BJ IOp(6/33=2)
 ---------------------------------------------------------------------
 1/18=20,19=15,26=3,38=1/1,3;
 2/9=110,12=2,17=6,18=5,40=1/2;
 3/5=4,6=6,7=1111,11=2,25=1,30=1,71=1,74=-5,124=41/1,2,3;
 4//1;
 5/5=2,38=5/2;
 6/7=2,8=2,9=2,10=2,28=1,33=2/1;
 7//1,2,3,16;
 1/18=20,19=15,26=3/3(2);
 2/9=110/2;
 99//99;
 2/9=110/2;
 3/5=4,6=6,7=1111,11=2,25=1,30=1,71=1,74=-5,124=41/1,2,3;
 4/5=5,16=3,69=1/1;
 5/5=2,38=5/2;
 7//1,2,3,16;
 1/18=20,19=15,26=3/3(-5);
 2/9=110/2;
 6/7=2,8=2,9=2,10=2,19=2,28=1,33=2/1;
 99/9=1/99;
 ----------------
 MAA1-AS1 geo opt
 ----------------
 Symbolic Z-matrix:
 Charge =  0 Multiplicity = 1
 C                     13.549    12.889    13.097 
 C                     12.161    12.634    12.547 
 C                     11.174    13.505    12.751 
 C                     12.049    11.515    11.587 
 O                     11.183    11.349    10.795 
 O                     13.003    10.58     11.636 
 H                     14.289    12.932    12.298 
 H                     13.917    12.098    13.75 
 H                     13.558    13.873    13.566 
 H                     11.296    14.331    13.436 
 H                     10.246    13.44     12.202 
 H                     13.576    10.853    12.336 
 C                     5.256     17.186    10.348 
 C                     6.536     16.85     10.225 
 C                     6.853     15.487    10.517 
 C                     6.456     14.954    11.777 
 C                     6.789     13.658    12.175 
 C                     7.591     12.843    11.311 
 C                     8.197     13.419    10.155 
 C                     7.801     14.724    9.707 
 N                     7.966     11.572    11.597 
 H                     4.913     18.208    10.287 
 H                     4.449     16.506    10.578 
 H                     7.291     17.621    10.167 
 H                     5.791     15.46     12.461 
 H                     6.415     13.228    13.093 
 H                     8.784     12.836    9.461 
 H                     8.335     15.154    8.872 
 H                     8.838     11.168    11.29 
 H                     7.393     11.126    12.299 
 
 Add virtual bond connecting atoms H29        and O5         Dist= 4.54D+00.

 GradGradGradGradGradGradGradGradGradGradGradGradGradGradGradGradGradGrad
 Berny optimization.
 Initialization pass.
                           ----------------------------
                           !    Initial Parameters    !
                           ! (Angstroms and Degrees)  !
 --------------------------                            --------------------------
 ! Name  Definition              Value          Derivative Info.                !
 --------------------------------------------------------------------------------
 ! R1    R(1,2)                  1.5146         estimate D2E/DX2                !
 ! R2    R(1,7)                  1.0899         estimate D2E/DX2                !
 ! R3    R(1,8)                  1.0897         estimate D2E/DX2                !
 ! R4    R(1,9)                  1.0901         estimate D2E/DX2                !
 ! R5    R(2,3)                  1.3321         estimate D2E/DX2                !
 ! R6    R(2,4)                  1.4786         estimate D2E/DX2                !
 ! R7    R(3,10)                 1.08           estimate D2E/DX2                !
 ! R8    R(3,11)                 1.0802         estimate D2E/DX2                !
 ! R9    R(4,5)                  1.1852         estimate D2E/DX2                !
 ! R10   R(4,6)                  1.3367         estimate D2E/DX2                !
 ! R11   R(5,29)                 2.4035         estimate D2E/DX2                !
 ! R12   R(6,12)                 0.9449         estimate D2E/DX2                !
 ! R13   R(13,14)                1.3291         estimate D2E/DX2                !
 ! R14   R(13,22)                1.0797         estimate D2E/DX2                !
 ! R15   R(13,23)                1.0801         estimate D2E/DX2                !
 ! R16   R(14,15)                1.4295         estimate D2E/DX2                !
 ! R17   R(14,24)                1.0807         estimate D2E/DX2                !
 ! R18   R(15,16)                1.4245         estimate D2E/DX2                !
 ! R19   R(15,20)                1.4618         estimate D2E/DX2                !
 ! R20   R(16,17)                1.396          estimate D2E/DX2                !
 ! R21   R(16,25)                1.0799         estimate D2E/DX2                !
 ! R22   R(17,18)                1.4332         estimate D2E/DX2                !
 ! R23   R(17,26)                1.0805         estimate D2E/DX2                !
 ! R24   R(18,19)                1.4267         estimate D2E/DX2                !
 ! R25   R(18,21)                1.3557         estimate D2E/DX2                !
 ! R26   R(19,20)                1.4355         estimate D2E/DX2                !
 ! R27   R(19,27)                1.0799         estimate D2E/DX2                !
 ! R28   R(20,28)                1.0804         estimate D2E/DX2                !
 ! R29   R(21,29)                1.0089         estimate D2E/DX2                !
 ! R30   R(21,30)                1.01           estimate D2E/DX2                !
 ! A1    A(2,1,7)              111.2625         estimate D2E/DX2                !
 ! A2    A(2,1,8)              113.8822         estimate D2E/DX2                !
 ! A3    A(2,1,9)              108.4074         estimate D2E/DX2                !
 ! A4    A(7,1,8)              103.8069         estimate D2E/DX2                !
 ! A5    A(7,1,9)              105.9138         estimate D2E/DX2                !
 ! A6    A(8,1,9)              113.2425         estimate D2E/DX2                !
 ! A7    A(1,2,3)              120.8847         estimate D2E/DX2                !
 ! A8    A(1,2,4)              115.632          estimate D2E/DX2                !
 ! A9    A(3,2,4)              122.5574         estimate D2E/DX2                !
 ! A10   A(2,3,10)             120.8988         estimate D2E/DX2                !
 ! A11   A(2,3,11)             121.2903         estimate D2E/DX2                !
 ! A12   A(10,3,11)            117.7381         estimate D2E/DX2                !
 ! A13   A(2,4,5)              126.5259         estimate D2E/DX2                !
 ! A14   A(2,4,6)              116.8403         estimate D2E/DX2                !
 ! A15   A(5,4,6)              116.6155         estimate D2E/DX2                !
 ! A16   A(4,5,29)             125.8596         estimate D2E/DX2                !
 ! A17   A(4,6,12)             104.9429         estimate D2E/DX2                !
 ! A18   A(14,13,22)           122.6835         estimate D2E/DX2                !
 ! A19   A(14,13,23)           125.4597         estimate D2E/DX2                !
 ! A20   A(22,13,23)           111.7523         estimate D2E/DX2                !
 ! A21   A(13,14,15)           115.8303         estimate D2E/DX2                !
 ! A22   A(13,14,24)           119.8316         estimate D2E/DX2                !
 ! A23   A(15,14,24)           122.4314         estimate D2E/DX2                !
 ! A24   A(14,15,16)           118.3997         estimate D2E/DX2                !
 ! A25   A(14,15,20)           121.8895         estimate D2E/DX2                !
 ! A26   A(16,15,20)           118.3943         estimate D2E/DX2                !
 ! A27   A(15,16,17)           122.2108         estimate D2E/DX2                !
 ! A28   A(15,16,25)           123.8176         estimate D2E/DX2                !
 ! A29   A(17,16,25)           113.6601         estimate D2E/DX2                !
 ! A30   A(16,17,18)           119.3103         estimate D2E/DX2                !
 ! A31   A(16,17,26)           121.9444         estimate D2E/DX2                !
 ! A32   A(18,17,26)           118.6581         estimate D2E/DX2                !
 ! A33   A(17,18,19)           119.7753         estimate D2E/DX2                !
 ! A34   A(17,18,21)           124.1089         estimate D2E/DX2                !
 ! A35   A(19,18,21)           115.5925         estimate D2E/DX2                !
 ! A36   A(18,19,20)           120.1823         estimate D2E/DX2                !
 ! A37   A(18,19,27)           122.2543         estimate D2E/DX2                !
 ! A38   A(20,19,27)           116.1168         estimate D2E/DX2                !
 ! A39   A(15,20,19)           118.7167         estimate D2E/DX2                !
 ! A40   A(15,20,28)           122.7537         estimate D2E/DX2                !
 ! A41   A(19,20,28)           117.819          estimate D2E/DX2                !
 ! A42   A(18,21,29)           123.3888         estimate D2E/DX2                !
 ! A43   A(18,21,30)           113.8105         estimate D2E/DX2                !
 ! A44   A(29,21,30)           121.6708         estimate D2E/DX2                !
 ! A45   A(5,29,21)            151.1395         estimate D2E/DX2                !
 ! D1    D(7,1,2,3)           -120.2913         estimate D2E/DX2                !
 ! D2    D(7,1,2,4)             48.9705         estimate D2E/DX2                !
 ! D3    D(8,1,2,3)            122.8138         estimate D2E/DX2                !
 ! D4    D(8,1,2,4)            -67.9244         estimate D2E/DX2                !
 ! D5    D(9,1,2,3)             -4.2138         estimate D2E/DX2                !
 ! D6    D(9,1,2,4)            165.048          estimate D2E/DX2                !
 ! D7    D(1,2,3,10)            -9.5479         estimate D2E/DX2                !
 ! D8    D(1,2,3,11)           167.2804         estimate D2E/DX2                !
 ! D9    D(4,2,3,10)          -178.0514         estimate D2E/DX2                !
 ! D10   D(4,2,3,11)            -1.2231         estimate D2E/DX2                !
 ! D11   D(1,2,4,5)           -159.4346         estimate D2E/DX2                !
 ! D12   D(1,2,4,6)             22.1861         estimate D2E/DX2                !
 ! D13   D(3,2,4,5)              9.6291         estimate D2E/DX2                !
 ! D14   D(3,2,4,6)           -168.7502         estimate D2E/DX2                !
 ! D15   D(2,4,5,29)           -57.3379         estimate D2E/DX2                !
 ! D16   D(6,4,5,29)           121.0446         estimate D2E/DX2                !
 ! D17   D(2,4,6,12)             0.9361         estimate D2E/DX2                !
 ! D18   D(5,4,6,12)          -177.6072         estimate D2E/DX2                !
 ! D19   D(4,5,29,21)           68.8818         estimate D2E/DX2                !
 ! D20   D(22,13,14,15)        171.4614         estimate D2E/DX2                !
 ! D21   D(22,13,14,24)          6.7924         estimate D2E/DX2                !
 ! D22   D(23,13,14,15)         -4.5127         estimate D2E/DX2                !
 ! D23   D(23,13,14,24)       -169.1817         estimate D2E/DX2                !
 ! D24   D(13,14,15,16)        -54.2225         estimate D2E/DX2                !
 ! D25   D(13,14,15,20)        139.0954         estimate D2E/DX2                !
 ! D26   D(24,14,15,16)        110.0094         estimate D2E/DX2                !
 ! D27   D(24,14,15,20)        -56.6727         estimate D2E/DX2                !
 ! D28   D(14,15,16,17)       -176.3477         estimate D2E/DX2                !
 ! D29   D(14,15,16,25)         10.4722         estimate D2E/DX2                !
 ! D30   D(20,15,16,17)         -9.1939         estimate D2E/DX2                !
 ! D31   D(20,15,16,25)        177.626          estimate D2E/DX2                !
 ! D32   D(14,15,20,19)        172.2917         estimate D2E/DX2                !
 ! D33   D(14,15,20,28)          2.1686         estimate D2E/DX2                !
 ! D34   D(16,15,20,19)          5.6089         estimate D2E/DX2                !
 ! D35   D(16,15,20,28)       -164.5141         estimate D2E/DX2                !
 ! D36   D(15,16,17,18)          1.9317         estimate D2E/DX2                !
 ! D37   D(15,16,17,26)       -174.6258         estimate D2E/DX2                !
 ! D38   D(25,16,17,18)        175.7483         estimate D2E/DX2                !
 ! D39   D(25,16,17,26)         -0.8093         estimate D2E/DX2                !
 ! D40   D(16,17,18,19)          8.9719         estimate D2E/DX2                !
 ! D41   D(16,17,18,21)       -179.7018         estimate D2E/DX2                !
 ! D42   D(26,17,18,19)       -174.3569         estimate D2E/DX2                !
 ! D43   D(26,17,18,21)         -3.0306         estimate D2E/DX2                !
 ! D44   D(17,18,19,20)        -12.3707         estimate D2E/DX2                !
 ! D45   D(17,18,19,27)       -178.1102         estimate D2E/DX2                !
 ! D46   D(21,18,19,20)        175.5873         estimate D2E/DX2                !
 ! D47   D(21,18,19,27)          9.8479         estimate D2E/DX2                !
 ! D48   D(17,18,21,29)       -147.9964         estimate D2E/DX2                !
 ! D49   D(17,18,21,30)         20.0076         estimate D2E/DX2                !
 ! D50   D(19,18,21,29)         23.6583         estimate D2E/DX2                !
 ! D51   D(19,18,21,30)       -168.3377         estimate D2E/DX2                !
 ! D52   D(18,19,20,15)          4.9607         estimate D2E/DX2                !
 ! D53   D(18,19,20,28)        175.5732         estimate D2E/DX2                !
 ! D54   D(27,19,20,15)        171.5454         estimate D2E/DX2                !
 ! D55   D(27,19,20,28)        -17.8421         estimate D2E/DX2                !
 ! D56   D(18,21,29,5)          35.9784         estimate D2E/DX2                !
 ! D57   D(30,21,29,5)        -131.1113         estimate D2E/DX2                !
 --------------------------------------------------------------------------------
 Trust Radius=3.00D-01 FncErr=1.00D-07 GrdErr=1.00D-06 EigMax=2.50D+02 EigMin=1.00D-04
 Number of steps in this run=    142 maximum allowed number of steps=    180.
 GradGradGradGradGradGradGradGradGradGradGradGradGradGradGradGradGradGrad

                          Input orientation:                          
 ---------------------------------------------------------------------
 Center     Atomic      Atomic             Coordinates (Angstroms)
 Number     Number       Type             X           Y           Z
 ---------------------------------------------------------------------
      1          6           0       13.549000   12.889000   13.097000
      2          6           0       12.161000   12.634000   12.547000
      3          6           0       11.174000   13.505000   12.751000
      4          6           0       12.049000   11.515000   11.587000
      5          8           0       11.183000   11.349000   10.795000
      6          8           0       13.003000   10.580000   11.636000
      7          1           0       14.289000   12.932000   12.298000
      8          1           0       13.917000   12.098000   13.750000
      9          1           0       13.558000   13.873000   13.566000
     10          1           0       11.296000   14.331000   13.436000
     11          1           0       10.246000   13.440000   12.202000
     12          1           0       13.576000   10.853000   12.336000
     13          6           0        5.256000   17.186000   10.348000
     14          6           0        6.536000   16.850000   10.225000
     15          6           0        6.853000   15.487000   10.517000
     16          6           0        6.456000   14.954000   11.777000
     17          6           0        6.789000   13.658000   12.175000
     18          6           0        7.591000   12.843000   11.311000
     19          6           0        8.197000   13.419000   10.155000
     20          6           0        7.801000   14.724000    9.707000
     21          7           0        7.966000   11.572000   11.597000
     22          1           0        4.913000   18.208000   10.287000
     23          1           0        4.449000   16.506000   10.578000
     24          1           0        7.291000   17.621000   10.167000
     25          1           0        5.791000   15.460000   12.461000
     26          1           0        6.415000   13.228000   13.093000
     27          1           0        8.784000   12.836000    9.461000
     28          1           0        8.335000   15.154000    8.872000
     29          1           0        8.838000   11.168000   11.290000
     30          1           0        7.393000   11.126000   12.299000
 ---------------------------------------------------------------------
                    Distance matrix (angstroms):
                    1          2          3          4          5
     1  C    0.000000
     2  C    1.514618   0.000000
     3  C    2.477861   1.332076   0.000000
     4  C    2.533372   1.478616   2.465892   0.000000
     5  O    3.642631   2.382690   2.911074   1.185232   0.000000
     6  O    2.786417   2.399542   3.625478   1.336691   2.147334
     7  H    1.089885   2.163143   3.199494   2.744269   3.796332
     8  H    1.089731   2.195004   3.240632   2.916827   4.094848
     9  H    1.090091   2.127226   2.546194   3.428365   4.437301
    10  H    2.696348   2.101988   1.079993   3.451908   3.984969
    11  H    3.466185   2.106154   1.080190   2.708258   2.688847
    12  H    2.173740   2.284449   3.602073   1.825096   2.889143
    13  C    9.736275   8.557764   7.372035   8.935335   8.330649
    14  C    8.551028   7.403173   6.251459   7.791690   7.223608
    15  C    7.631672   6.358881   5.252630   6.627224   5.995768
    16  C    7.504484   6.206636   5.030686   6.568445   6.025353
    17  C    6.865788   5.481363   4.425315   5.710148   5.152001
    18  C    6.220103   4.738805   3.917874   4.659777   3.924380
    19  C    6.130267   4.695869   3.950841   4.529210   3.689268
    20  C    6.920898   5.607433   4.704150   5.646024   4.900234
    21  N    5.929113   4.430392   3.919116   4.083410   3.322954
    22  H   10.524655   9.418629   8.209118   9.869587   9.306817
    23  H   10.111283   8.851231   7.678122   9.148123   8.484603
    24  H    8.374920   7.365560   6.220627   7.870083   7.408106
    25  H    8.197628   6.969259   5.734354   7.449125   6.982087
    26  H    7.142051   5.802367   4.779307   6.078187   5.616518
    27  H    5.994041   4.579119   4.121136   4.114018   3.121847
    28  H    7.082842   5.873185   5.081905   5.865777   5.127091
    29  H    5.331098   3.843375   3.612892   3.243322   2.403500
    30  H    6.453008   5.006934   4.489978   4.726161   4.083607
                    6          7          8          9         10
     6  O    0.000000
     7  H    2.761149   0.000000
     8  H    2.758390   1.715297   0.000000
     9  H    3.857042   1.740019   1.820264   0.000000
    10  H    4.497094   3.494323   3.457532   2.311560   0.000000
    11  H    4.012606   4.075921   4.203987   3.607954   1.849091
    12  H    0.944912   2.198193   1.914602   3.260924   4.301730
    13  C   10.262270  10.173205  10.605389   9.500247   7.359916
    14  C    9.117341   8.930681   9.459719   8.326662   6.270046
    15  C    7.946906   8.061891   8.475713   7.540452   5.440326
    16  C    7.874958   8.106529   8.228972   7.403208   5.154223
    17  C    6.955458   7.536060   7.464758   6.913788   4.728224
    18  C    5.875078   6.770915   6.820705   6.461502   4.522919
    19  C    5.775025   6.476271   6.883855   6.370350   4.604401
    20  C    6.924925   7.212398   7.787630   6.982774   5.125906
    21  N    5.133902   6.505485   6.350314   6.359405   4.699245
    22  H   11.200638  10.944847  11.419128  10.211762   8.104938
    23  H   10.459816  10.609311  10.914901   9.941565   7.731766
    24  H    9.184802   8.689067   9.340519   8.054564   6.127845
    25  H    8.746883   8.867545   8.887994   8.004117   5.703533
    26  H    7.248206   7.919565   7.615022   7.187642   5.015817
    27  H    5.255485   6.193772   6.729625   6.381024   4.934146
    28  H    7.095872   7.219756   8.018276   7.138230   5.502267
    29  H    4.220508   5.817316   5.719505   5.897084   4.544409
    30  H    5.675367   7.128566   6.753722   6.867206   5.176698
                   11         12         13         14         15
    11  H    0.000000
    12  H    4.218936   0.000000
    13  C    6.509219  10.643375   0.000000
    14  C    5.413015   9.485881   1.329069   0.000000
    15  C    4.306029   8.365491   2.337856   1.429518   0.000000
    16  C    4.103282   8.235598   2.909272   2.451514   1.424534
    17  C    3.463972   7.345564   4.258498   3.749050   2.469474
    18  C    2.863445   6.389910   5.024066   4.283511   2.857589
    19  C    2.896386   6.346240   4.782993   3.812556   2.492790
    20  C    3.721788   7.432826   3.598521   2.527533   1.461839
    21  N    3.008961   5.703962   6.357759   5.637780   4.210985
    22  H    7.405534  11.547380   1.079747   2.117106   3.349678
    23  H    6.755956  10.878837   1.080069   2.144415   2.611761
    24  H    5.509447   9.487445   2.088830   1.080662   2.206422
    25  H    4.898419   9.046894   2.780300   2.736206   2.215335
    26  H    3.938957   7.582453   4.954197   4.621574   3.454085
    27  H    3.164702   5.929686   5.670631   4.663625   3.445533
    28  H    4.204595   7.613539   3.973392   2.818408   2.239026
    29  H    2.824215   4.862302   7.066429   6.222423   4.815757
    30  H    3.674726   6.189135   6.715413   6.148179   4.741882
                   16         17         18         19         20
    16  C    0.000000
    17  C    1.396033   0.000000
    18  C    2.441660   1.433152   0.000000
    19  C    2.831641   2.473860   1.426656   0.000000
    20  C    2.479279   2.872547   2.480943   1.435460   0.000000
    21  N    3.708156   2.463901   1.355678   2.354598   3.678917
    22  H    3.897366   5.271283   6.083049   5.808322   4.562368
    23  H    2.806128   4.017103   4.881293   4.874013   3.894877
    24  H    3.225246   4.470955   4.922197   4.298579   2.977299
    25  H    1.079869   2.079664   3.378045   3.907960   3.488024
    26  H    2.170855   1.080509   2.169499   3.441489   3.952722
    27  H    3.907603   3.467204   2.201317   1.079858   2.142743
    28  H    3.465497   3.941820   3.441363   2.162258   1.080408
    29  H    4.499432   3.343909   2.088319   2.601174   4.028200
    30  H    3.975429   2.605996   1.990838   3.240525   4.453149
                   21         22         23         24         25
    21  N    0.000000
    22  H    7.421146   0.000000
    23  H    6.144266   1.787954   0.000000
    24  H    6.252274   2.452316   3.080440   0.000000
    25  H    4.538024   3.612293   2.537867   3.490323   0.000000
    26  H    2.717711   5.910164   4.575551   5.350449   2.402212
    27  H    2.613296   6.672728   5.788680   5.061987   4.984318
    28  H    4.515807   4.799919   4.454137   2.975408   4.409818
    29  H    1.008885   8.122391   6.947266   6.730197   5.392283
    30  H    1.009975   7.768737   6.369723   6.836728   4.623441
                   26         27         28         29         30
    26  H    0.000000
    27  H    4.353992   0.000000
    28  H    5.021227   2.433443   0.000000
    29  H    3.655864   2.475961   4.689129   0.000000
    30  H    2.450576   3.593498   5.371823   1.762915   0.000000
 Stoichiometry    C12H15NO2
 Framework group  C1[X(C12H15NO2)]
 Deg. of freedom    84
 Full point group                 C1      NOp   1
 Largest Abelian subgroup         C1      NOp   1
 Largest concise Abelian subgroup C1      NOp   1
                         Standard orientation:                         
 ---------------------------------------------------------------------
 Center     Atomic      Atomic             Coordinates (Angstroms)
 Number     Number       Type             X           Y           Z
 ---------------------------------------------------------------------
      1          6           0        4.225755    1.942076    0.547971
      2          6           0        3.102116    0.938659    0.390942
      3          6           0        1.866642    1.226425    0.797415
      4          6           0        3.409885   -0.240430   -0.446514
      5          8           0        2.625342   -0.953093   -0.976966
      6          8           0        4.700667   -0.553416   -0.597059
      7          1           0        4.661611    2.201558   -0.416679
      8          1           0        5.072425    1.569743    1.124193
      9          1           0        3.808124    2.867077    0.945786
     10          1           0        1.667474    2.112016    1.382605
     11          1           0        1.024883    0.612582    0.512024
     12          1           0        5.168337    0.088434   -0.085032
     13          6           0       -5.436387    0.989608   -0.180637
     14          6           0       -4.222903    1.316224   -0.613306
     15          6           0       -3.188554    0.367610   -0.341688
     16          6           0       -2.993598   -0.055356    1.004563
     17          6           0       -1.960557   -0.920038    1.370704
     18          6           0       -1.035898   -1.370624    0.372755
     19          6           0       -1.059964   -0.788845   -0.929666
     20          6           0       -2.159656    0.043272   -1.328169
     21          7           0       -0.002885   -2.213399    0.618676
     22          1           0       -6.268609    1.677127   -0.204682
     23          1           0       -5.704100    0.053264    0.286416
     24          1           0       -4.012649    2.335074   -0.905829
     25          1           0       -3.677545    0.168157    1.809781
     26          1           0       -1.866925   -1.305608    2.375726
     27          1           0       -0.402234   -1.118239   -1.720226
     28          1           0       -2.104541    0.523058   -2.294631
     29          1           0        0.872326   -2.179841    0.117947
     30          1           0       -0.107749   -2.750034    1.467838
 ---------------------------------------------------------------------
 Rotational constants (GHZ):           1.1974601           0.2249433           0.2117054
 Standard basis: 6-311++G(d,p) (5D, 7F)
 There are   450 symmetry adapted cartesian basis functions of A   symmetry.
 There are   435 symmetry adapted basis functions of A   symmetry.
   435 basis functions,   675 primitive gaussians,   450 cartesian basis functions
    55 alpha electrons       55 beta electrons
       nuclear repulsion energy       897.6864411909 Hartrees.
 NAtoms=   30 NActive=   30 NUniq=   30 SFac= 1.00D+00 NAtFMM=   60 NAOKFM=F Big=F
 Integral buffers will be    131072 words long.
 Raffenetti 2 integral format.
 Two-electron integral symmetry is turned on.
 Nuclear repulsion after empirical dispersion term =      897.6341006646 Hartrees.
 One-electron integrals computed using PRISM.
 NBasis=   435 RedAO= T EigKep=  1.05D-06  NBF=   435
 NBsUse=   435 1.00D-06 EigRej= -1.00D+00 NBFU=   435
 ExpMin= 3.60D-02 ExpMax= 8.59D+03 ExpMxC= 1.30D+03 IAcc=3 IRadAn=         5 AccDes= 0.00D+00
 Harris functional with IExCor=  402 and IRadAn=       5 diagonalized for initial guess.
 HarFok:  IExCor=  402 AccDes= 0.00D+00 IRadAn=         5 IDoV= 1 UseB2=F ITyADJ=14
 ICtDFT=  3500011 ScaDFX=  1.000000  1.000000  1.000000  1.000000
 FoFCou: FMM=F IPFlag=           0 FMFlag=      100000 FMFlg1=           0
         NFxFlg=           0 DoJE=T BraDBF=F KetDBF=T FulRan=T
         wScrn=  0.000000 ICntrl=       500 IOpCl=  0 I1Cent=   200000004 NGrid=           0
         NMat0=    1 NMatS0=      1 NMatT0=    0 NMatD0=    1 NMtDS0=    0 NMtDT0=    0
 Petite list used in FoFCou.
 Requested convergence on RMS density matrix=1.00D-08 within 128 cycles.
 Requested convergence on MAX density matrix=1.00D-06.
 Requested convergence on             energy=1.00D-06.
 No special actions if energy rises.
 SCF Done:  E(RB3LYP) =  -671.695108945     A.U. after   15 cycles
            NFock= 15  Conv=0.72D-08     -V/T= 2.0041
 SCF density gives NOpUse=  1 NOpAll=  1.

 **********************************************************************

            Population analysis using the SCF density.

 **********************************************************************

 Orbital symmetries:
 BldTbl:  Degeneracy threshold= 1.00D-02
       Occupied  (A) (A) (A) (A) (A) (A) (A) (A) (A) (A) (A) (A)
                 (A) (A) (A) (A) (A) (A) (A) (A) (A) (A) (A) (A)
                 (A) (A) (A) (A) (A) (A) (A) (A) (A) (A) (A) (A)
                 (A) (A) (A) (A) (A) (A) (A) (A) (A) (A) (A) (A)
                 (A) (A) (A) (A) (A) (A) (A)
       Virtual   (A) (A) (A) (A) (A) (A) (A) (A) (A) (A) (A) (A)
                 (A) (A) (A) (A) (A) (A) (A) (A) (A) (A) (A) (A)
                 (A) (A) (A) (A) (A) (A) (A) (A) (A) (A) (A) (A)
                 (A) (A) (A) (A) (A) (A) (A) (A) (A) (A) (A) (A)
                 (A) (A) (A) (A) (A) (A) (A) (A) (A) (A) (A) (A)
                 (A) (A) (A) (A) (A) (A) (A) (A) (A) (A) (A) (A)
                 (A) (A) (A) (A) (A) (A) (A) (A) (A) (A) (A) (A)
                 (A) (A) (A) (A) (A) (A) (A) (A) (A) (A) (A) (A)
                 (A) (A) (A) (A) (A) (A) (A) (A) (A) (A) (A) (A)
                 (A) (A) (A) (A) (A) (A) (A) (A) (A) (A) (A) (A)
                 (A) (A) (A) (A) (A) (A) (A) (A) (A) (A) (A) (A)
                 (A) (A) (A) (A) (A) (A) (A) (A) (A) (A) (A) (A)
                 (A) (A) (A) (A) (A) (A) (A) (A) (A) (A) (A) (A)
                 (A) (A) (A) (A) (A) (A) (A) (A) (A) (A) (A) (A)
                 (A) (A) (A) (A) (A) (A) (A) (A) (A) (A) (A) (A)
                 (A) (A) (A) (A) (A) (A) (A) (A) (A) (A) (A) (A)
                 (A) (A) (A) (A) (A) (A) (A) (A) (A) (A) (A) (A)
                 (A) (A) (A) (A) (A) (A) (A) (A) (A) (A) (A) (A)
                 (A) (A) (A) (A) (A) (A) (A) (A) (A) (A) (A) (A)
                 (A) (A) (A) (A) (A) (A) (A) (A) (A) (A) (A) (A)
                 (A) (A) (A) (A) (A) (A) (A) (A) (A) (A) (A) (A)
                 (A) (A) (A) (A) (A) (A) (A) (A) (A) (A) (A) (A)
                 (A) (A) (A) (A) (A) (A) (A) (A) (A) (A) (A) (A)
                 (A) (A) (A) (A) (A) (A) (A) (A) (A) (A) (A) (A)
                 (A) (A) (A) (A) (A) (A) (A) (A) (A) (A) (A) (A)
                 (A) (A) (A) (A) (A) (A) (A) (A) (A) (A) (A) (A)
                 (A) (A) (A) (A) (A) (A) (A) (A) (A) (A) (A) (A)
                 (A) (A) (A) (A) (A) (A) (A) (A) (A) (A) (A) (A)
                 (A) (A) (A) (A) (A) (A) (A) (A) (A) (A) (A) (A)
                 (A) (A) (A) (A) (A) (A) (A) (A) (A) (A) (A) (A)
                 (A) (A) (A) (A) (A) (A) (A) (A) (A) (A) (A) (A)
                 (A) (A) (A) (A) (A) (A) (A) (A)
 The electronic state is 1-A.
 Alpha  occ. eigenvalues --  -19.18335 -19.11731 -14.31358 -10.31428 -10.21705
 Alpha  occ. eigenvalues --  -10.21399 -10.20415 -10.20011 -10.17612 -10.17177
 Alpha  occ. eigenvalues --  -10.17120 -10.16688 -10.16492 -10.16315 -10.15278
 Alpha  occ. eigenvalues --   -1.13882  -1.04689  -0.92300  -0.84151  -0.83447
 Alpha  occ. eigenvalues --   -0.77658  -0.73672  -0.72789  -0.69666  -0.66507
 Alpha  occ. eigenvalues --   -0.62178  -0.61265  -0.60658  -0.55662  -0.52834
 Alpha  occ. eigenvalues --   -0.52421  -0.51306  -0.48856  -0.48624  -0.48334
 Alpha  occ. eigenvalues --   -0.46079  -0.44854  -0.44335  -0.43059  -0.42769
 Alpha  occ. eigenvalues --   -0.42363  -0.41575  -0.41264  -0.39348  -0.37912
 Alpha  occ. eigenvalues --   -0.36754  -0.34945  -0.34354  -0.33866  -0.30236
 Alpha  occ. eigenvalues --   -0.30136  -0.28955  -0.26055  -0.24575  -0.19144
 Alpha virt. eigenvalues --   -0.07026  -0.02529  -0.02140  -0.01258  -0.00215
 Alpha virt. eigenvalues --    0.00185   0.00851   0.01219   0.01528   0.02104
 Alpha virt. eigenvalues --    0.02463   0.02900   0.03247   0.04121   0.04548
 Alpha virt. eigenvalues --    0.04629   0.04994   0.05845   0.05996   0.06274
 Alpha virt. eigenvalues --    0.07014   0.07298   0.08206   0.08407   0.08520
 Alpha virt. eigenvalues --    0.09276   0.09803   0.10239   0.10439   0.10549
 Alpha virt. eigenvalues --    0.10812   0.11302   0.11567   0.12247   0.12283
 Alpha virt. eigenvalues --    0.12624   0.12677   0.12973   0.13275   0.13625
 Alpha virt. eigenvalues --    0.13925   0.14237   0.14524   0.14742   0.14933
 Alpha virt. eigenvalues --    0.15466   0.15691   0.15940   0.16253   0.16430
 Alpha virt. eigenvalues --    0.16793   0.17324   0.17587   0.17630   0.18023
 Alpha virt. eigenvalues --    0.19059   0.19297   0.19380   0.20068   0.20482
 Alpha virt. eigenvalues --    0.20787   0.21293   0.21595   0.22168   0.22588
 Alpha virt. eigenvalues --    0.23226   0.23276   0.23706   0.24117   0.24468
 Alpha virt. eigenvalues --    0.24738   0.25193   0.25591   0.26293   0.26594
 Alpha virt. eigenvalues --    0.27104   0.27280   0.28062   0.28332   0.28614
 Alpha virt. eigenvalues --    0.28732   0.29146   0.29837   0.30138   0.30563
 Alpha virt. eigenvalues --    0.30959   0.31271   0.31719   0.32185   0.32730
 Alpha virt. eigenvalues --    0.32881   0.33902   0.34314   0.34528   0.35240
 Alpha virt. eigenvalues --    0.36409   0.36504   0.37463   0.37676   0.38110
 Alpha virt. eigenvalues --    0.38509   0.39247   0.40163   0.40993   0.42264
 Alpha virt. eigenvalues --    0.42994   0.44014   0.45192   0.47048   0.49746
 Alpha virt. eigenvalues --    0.50758   0.51312   0.52996   0.54113   0.54524
 Alpha virt. eigenvalues --    0.55164   0.55850   0.56208   0.57796   0.58017
 Alpha virt. eigenvalues --    0.59265   0.59464   0.59727   0.61048   0.61560
 Alpha virt. eigenvalues --    0.61801   0.62264   0.62657   0.63128   0.63681
 Alpha virt. eigenvalues --    0.64414   0.65014   0.66323   0.67156   0.67286
 Alpha virt. eigenvalues --    0.67810   0.67971   0.69057   0.69779   0.70842
 Alpha virt. eigenvalues --    0.71793   0.72437   0.72936   0.73999   0.75128
 Alpha virt. eigenvalues --    0.75348   0.76018   0.76801   0.77632   0.78276
 Alpha virt. eigenvalues --    0.78690   0.79390   0.80223   0.81145   0.83721
 Alpha virt. eigenvalues --    0.84317   0.85610   0.86368   0.87089   0.88700
 Alpha virt. eigenvalues --    0.88785   0.89767   0.90745   0.91677   0.92291
 Alpha virt. eigenvalues --    0.92957   0.94071   0.94415   0.95532   0.96427
 Alpha virt. eigenvalues --    0.97869   1.00775   1.01816   1.02526   1.04481
 Alpha virt. eigenvalues --    1.05345   1.07176   1.07979   1.10106   1.10294
 Alpha virt. eigenvalues --    1.12831   1.13326   1.14519   1.15852   1.16091
 Alpha virt. eigenvalues --    1.16757   1.17713   1.18188   1.22666   1.24614
 Alpha virt. eigenvalues --    1.26914   1.27711   1.29658   1.30475   1.32790
 Alpha virt. eigenvalues --    1.35761   1.36043   1.37160   1.40567   1.43320
 Alpha virt. eigenvalues --    1.43997   1.44929   1.45931   1.47068   1.48115
 Alpha virt. eigenvalues --    1.48807   1.51182   1.52603   1.53674   1.54992
 Alpha virt. eigenvalues --    1.55607   1.56281   1.56855   1.57711   1.58816
 Alpha virt. eigenvalues --    1.59005   1.59339   1.59940   1.62039   1.63267
 Alpha virt. eigenvalues --    1.64740   1.67487   1.68013   1.69356   1.69912
 Alpha virt. eigenvalues --    1.70787   1.72360   1.72649   1.73354   1.75211
 Alpha virt. eigenvalues --    1.76570   1.76941   1.77571   1.78183   1.80577
 Alpha virt. eigenvalues --    1.80986   1.83145   1.84636   1.85614   1.86382
 Alpha virt. eigenvalues --    1.88021   1.90198   1.90970   1.92563   1.93385
 Alpha virt. eigenvalues --    1.95242   1.97016   1.98134   1.98792   1.98973
 Alpha virt. eigenvalues --    2.02667   2.03877   2.07492   2.08268   2.08506
 Alpha virt. eigenvalues --    2.09243   2.11042   2.11152   2.13002   2.14723
 Alpha virt. eigenvalues --    2.15862   2.19173   2.19754   2.21082   2.23647
 Alpha virt. eigenvalues --    2.28027   2.30591   2.31988   2.32156   2.34324
 Alpha virt. eigenvalues --    2.37060   2.39513   2.40813   2.44618   2.45828
 Alpha virt. eigenvalues --    2.46804   2.47400   2.50515   2.52440   2.52884
 Alpha virt. eigenvalues --    2.52998   2.55053   2.55326   2.59913   2.60839
 Alpha virt. eigenvalues --    2.62142   2.62529   2.64517   2.65642   2.67972
 Alpha virt. eigenvalues --    2.68776   2.69042   2.71014   2.72215   2.73580
 Alpha virt. eigenvalues --    2.74445   2.75335   2.76062   2.77115   2.78781
 Alpha virt. eigenvalues --    2.79607   2.81006   2.81583   2.83558   2.84648
 Alpha virt. eigenvalues --    2.86269   2.87490   2.87775   2.88255   2.90073
 Alpha virt. eigenvalues --    2.92905   2.94371   2.95428   2.96435   2.96908
 Alpha virt. eigenvalues --    2.97581   2.98214   3.04043   3.05302   3.08687
 Alpha virt. eigenvalues --    3.09289   3.11766   3.12007   3.13567   3.18940
 Alpha virt. eigenvalues --    3.22022   3.26406   3.29763   3.30893   3.34811
 Alpha virt. eigenvalues --    3.39264   3.40182   3.41594   3.47725   3.49704
 Alpha virt. eigenvalues --    3.54418   3.55902   3.60446   3.61660   3.70105
 Alpha virt. eigenvalues --    3.71210   3.73965   3.77877   3.78838   3.86525
 Alpha virt. eigenvalues --    3.90051   3.91237   3.96809   4.00755   4.04777
 Alpha virt. eigenvalues --    4.05810   4.16138   4.17039   4.23382   4.33430
 Alpha virt. eigenvalues --    4.36379   4.75829   4.79501   4.99035   5.02243
 Alpha virt. eigenvalues --    5.08008   5.20787   5.45962   5.64378   5.90114
 Alpha virt. eigenvalues --   23.66261  23.71351  23.86332  23.88447  23.91904
 Alpha virt. eigenvalues --   23.94518  23.95203  23.98556  24.02263  24.11175
 Alpha virt. eigenvalues --   24.23475  24.30820  35.68036  49.86986  50.05232
          Condensed to atoms (all electrons):
               1          2          3          4          5          6
     1  C    7.316231  -0.748353  -0.826035  -0.264840   0.057703   0.148865
     2  C   -0.748353   8.173021  -1.820499  -0.318555  -0.173336  -0.140411
     3  C   -0.826035  -1.820499   8.746314  -0.121434   0.051574  -0.105196
     4  C   -0.264840  -0.318555  -0.121434   6.647845   0.321139   0.122921
     5  O    0.057703  -0.173336   0.051574   0.321139   8.120660  -0.107131
     6  O    0.148865  -0.140411  -0.105196   0.122921  -0.107131   7.985779
     7  H    0.347275  -0.000542  -0.014655   0.011227   0.002253   0.002803
     8  H    0.348610   0.037000  -0.074565   0.023462  -0.004892  -0.011188
     9  H    0.456961  -0.112271  -0.019071   0.008539  -0.000190   0.001307
    10  H   -0.055112  -0.037114   0.400733   0.036454  -0.002994  -0.004401
    11  H    0.143999   0.008224   0.288811  -0.153709   0.040701   0.017334
    12  H   -0.181192   0.093382   0.146872  -0.053356   0.010547   0.175519
    13  C   -0.000112  -0.000710  -0.000793  -0.000210   0.000009   0.000001
    14  C   -0.000160   0.005587  -0.005402  -0.000436  -0.000191  -0.000023
    15  C   -0.005418   0.007285  -0.027904   0.010552  -0.007624  -0.000512
    16  C    0.005495  -0.052636   0.068977  -0.010383   0.007930   0.000172
    17  C   -0.001244   0.098873  -0.131967   0.032253  -0.016064   0.001444
    18  C   -0.006678  -0.058075   0.144710  -0.071574   0.017038   0.004175
    19  C   -0.018637  -0.037462   0.070460   0.040777  -0.037014  -0.002761
    20  C    0.008095   0.028924  -0.033648   0.007298   0.035195  -0.000245
    21  N    0.010007   0.069637  -0.084210  -0.007454   0.000046  -0.001297
    22  H    0.000003  -0.000081   0.000044  -0.000018   0.000001   0.000000
    23  H   -0.000012   0.000021   0.000032   0.000019  -0.000004  -0.000000
    24  H    0.000046  -0.000554   0.001173  -0.000059  -0.000019  -0.000002
    25  H    0.000254  -0.002389   0.002125  -0.000445   0.000123   0.000006
    26  H   -0.001511  -0.003429   0.004991   0.003585  -0.001073  -0.000106
    27  H   -0.002542  -0.015303   0.019719   0.002376  -0.011738  -0.001622
    28  H    0.000610   0.002433  -0.002298   0.000356   0.001211   0.000158
    29  H    0.000437  -0.031216   0.018418   0.010393   0.013924   0.000462
    30  H    0.001929   0.006476  -0.007053  -0.006235   0.002312   0.000428
               7          8          9         10         11         12
     1  C    0.347275   0.348610   0.456961  -0.055112   0.143999  -0.181192
     2  C   -0.000542   0.037000  -0.112271  -0.037114   0.008224   0.093382
     3  C   -0.014655  -0.074565  -0.019071   0.400733   0.288811   0.146872
     4  C    0.011227   0.023462   0.008539   0.036454  -0.153709  -0.053356
     5  O    0.002253  -0.004892  -0.000190  -0.002994   0.040701   0.010547
     6  O    0.002803  -0.011188   0.001307  -0.004401   0.017334   0.175519
     7  H    0.548715  -0.076416  -0.020119   0.003428  -0.001374  -0.008116
     8  H   -0.076416   0.631641  -0.020210   0.003847  -0.006894   0.004290
     9  H   -0.020119  -0.020210   0.539875  -0.009572   0.005171   0.000035
    10  H    0.003428   0.003847  -0.009572   0.539055  -0.042294   0.001388
    11  H   -0.001374  -0.006894   0.005171  -0.042294   0.603268  -0.005798
    12  H   -0.008116   0.004290   0.000035   0.001388  -0.005798   0.570139
    13  C   -0.000001   0.000001  -0.000030   0.000273   0.002316   0.000000
    14  C    0.000073  -0.000023  -0.000023  -0.000231  -0.003258  -0.000016
    15  C    0.000516  -0.000114  -0.000836  -0.012271   0.069861   0.000002
    16  C   -0.000282   0.000208   0.000529   0.013087  -0.085685  -0.000096
    17  C    0.000488  -0.000359  -0.001366  -0.009624   0.122558  -0.000013
    18  C   -0.001231   0.001808  -0.000982   0.017905  -0.157280   0.002088
    19  C    0.001272  -0.000574  -0.000099   0.000952   0.008763  -0.001190
    20  C   -0.000807  -0.000359   0.001777  -0.000235  -0.035682   0.000563
    21  N   -0.000123   0.000099   0.000744  -0.007736   0.044075  -0.001303
    22  H    0.000000  -0.000000  -0.000002   0.000065  -0.000129  -0.000000
    23  H   -0.000000   0.000000  -0.000001   0.000005  -0.000138   0.000000
    24  H    0.000004   0.000000   0.000003   0.000235  -0.001815  -0.000002
    25  H   -0.000002  -0.000004   0.000014   0.000637  -0.001752   0.000000
    26  H    0.000012  -0.000009  -0.000077  -0.000158  -0.002401   0.000035
    27  H    0.000198  -0.000136   0.000147  -0.000437  -0.002139   0.000043
    28  H   -0.000040   0.000010  -0.000029   0.000962  -0.004629   0.000018
    29  H   -0.000179   0.000222  -0.000089   0.001434  -0.004011   0.000779
    30  H   -0.000003  -0.000024   0.000023  -0.000749   0.002773  -0.000168
              13         14         15         16         17         18
     1  C   -0.000112  -0.000160  -0.005418   0.005495  -0.001244  -0.006678
     2  C   -0.000710   0.005587   0.007285  -0.052636   0.098873  -0.058075
     3  C   -0.000793  -0.005402  -0.027904   0.068977  -0.131967   0.144710
     4  C   -0.000210  -0.000436   0.010552  -0.010383   0.032253  -0.071574
     5  O    0.000009  -0.000191  -0.007624   0.007930  -0.016064   0.017038
     6  O    0.000001  -0.000023  -0.000512   0.000172   0.001444   0.004175
     7  H   -0.000001   0.000073   0.000516  -0.000282   0.000488  -0.001231
     8  H    0.000001  -0.000023  -0.000114   0.000208  -0.000359   0.001808
     9  H   -0.000030  -0.000023  -0.000836   0.000529  -0.001366  -0.000982
    10  H    0.000273  -0.000231  -0.012271   0.013087  -0.009624   0.017905
    11  H    0.002316  -0.003258   0.069861  -0.085685   0.122558  -0.157280
    12  H    0.000000  -0.000016   0.000002  -0.000096  -0.000013   0.002088
    13  C    5.397100   0.287878  -0.363681   0.432213  -0.098327   0.108628
    14  C    0.287878   8.327152  -0.474800  -0.973541   0.465659  -0.614969
    15  C   -0.363681  -0.474800  12.430184  -5.663785   4.020873  -4.149883
    16  C    0.432213  -0.973541  -5.663785  15.280461  -6.359268   4.386586
    17  C   -0.098327   0.465659   4.020873  -6.359268  12.935636  -4.991790
    18  C    0.108628  -0.614969  -4.149883   4.386586  -4.991790  12.629286
    19  C   -0.103953   0.516410   3.352467  -2.837616   2.120573  -4.252943
    20  C    0.207896  -1.819026  -3.816068   2.054089  -2.538935   3.889810
    21  N   -0.004477  -0.008138   0.060931   0.084457  -0.140950  -0.286575
    22  H    0.395226  -0.065224  -0.013848   0.076421  -0.025613   0.013921
    23  H    0.383528   0.015453  -0.060703   0.010131   0.020244  -0.012822
    24  H   -0.082038   0.378984  -0.002640   0.045531  -0.009665  -0.012892
    25  H    0.033917  -0.086501  -0.293187   0.674731  -0.261956   0.176436
    26  H   -0.004785   0.041340   0.183980  -0.278384   0.727910  -0.324079
    27  H   -0.002161   0.032337   0.119987  -0.035947  -0.032601  -0.210685
    28  H    0.014817  -0.037297  -0.149072   0.148576  -0.020989   0.136700
    29  H   -0.000165  -0.002083  -0.020882   0.014139  -0.009900   0.039104
    30  H    0.000091  -0.003628  -0.020098   0.043527  -0.078483   0.012579
              19         20         21         22         23         24
     1  C   -0.018637   0.008095   0.010007   0.000003  -0.000012   0.000046
     2  C   -0.037462   0.028924   0.069637  -0.000081   0.000021  -0.000554
     3  C    0.070460  -0.033648  -0.084210   0.000044   0.000032   0.001173
     4  C    0.040777   0.007298  -0.007454  -0.000018   0.000019  -0.000059
     5  O   -0.037014   0.035195   0.000046   0.000001  -0.000004  -0.000019
     6  O   -0.002761  -0.000245  -0.001297   0.000000  -0.000000  -0.000002
     7  H    0.001272  -0.000807  -0.000123   0.000000  -0.000000   0.000004
     8  H   -0.000574  -0.000359   0.000099  -0.000000   0.000000   0.000000
     9  H   -0.000099   0.001777   0.000744  -0.000002  -0.000001   0.000003
    10  H    0.000952  -0.000235  -0.007736   0.000065   0.000005   0.000235
    11  H    0.008763  -0.035682   0.044075  -0.000129  -0.000138  -0.001815
    12  H   -0.001190   0.000563  -0.001303  -0.000000   0.000000  -0.000002
    13  C   -0.103953   0.207896  -0.004477   0.395226   0.383528  -0.082038
    14  C    0.516410  -1.819026  -0.008138  -0.065224   0.015453   0.378984
    15  C    3.352467  -3.816068   0.060931  -0.013848  -0.060703  -0.002640
    16  C   -2.837616   2.054089   0.084457   0.076421   0.010131   0.045531
    17  C    2.120573  -2.538935  -0.140950  -0.025613   0.020244  -0.009665
    18  C   -4.252943   3.889810  -0.286575   0.013921  -0.012822  -0.012892
    19  C   11.560549  -5.200837   0.087943  -0.008508   0.003286   0.038661
    20  C   -5.200837  13.693760  -0.019651  -0.009938  -0.007399  -0.097707
    21  N    0.087943  -0.019651   6.886479  -0.000134   0.000096   0.000664
    22  H   -0.008508  -0.009938  -0.000134   0.576531  -0.050608  -0.012629
    23  H    0.003286  -0.007399   0.000096  -0.050608   0.554055   0.010834
    24  H    0.038661  -0.097707   0.000664  -0.012629   0.010834   0.560607
    25  H   -0.045396   0.097043  -0.005654   0.003240  -0.001787   0.002367
    26  H    0.039063  -0.087398  -0.025339  -0.000577   0.001343   0.000181
    27  H    0.702964  -0.274218  -0.006726   0.000045   0.000054   0.001952
    28  H   -0.271560   0.481615  -0.007453   0.000873   0.000297  -0.003287
    29  H   -0.062147   0.037843   0.342372   0.000033  -0.000012   0.000074
    30  H    0.005852   0.015755   0.362279  -0.000016  -0.000056  -0.000043
              25         26         27         28         29         30
     1  C    0.000254  -0.001511  -0.002542   0.000610   0.000437   0.001929
     2  C   -0.002389  -0.003429  -0.015303   0.002433  -0.031216   0.006476
     3  C    0.002125   0.004991   0.019719  -0.002298   0.018418  -0.007053
     4  C   -0.000445   0.003585   0.002376   0.000356   0.010393  -0.006235
     5  O    0.000123  -0.001073  -0.011738   0.001211   0.013924   0.002312
     6  O    0.000006  -0.000106  -0.001622   0.000158   0.000462   0.000428
     7  H   -0.000002   0.000012   0.000198  -0.000040  -0.000179  -0.000003
     8  H   -0.000004  -0.000009  -0.000136   0.000010   0.000222  -0.000024
     9  H    0.000014  -0.000077   0.000147  -0.000029  -0.000089   0.000023
    10  H    0.000637  -0.000158  -0.000437   0.000962   0.001434  -0.000749
    11  H   -0.001752  -0.002401  -0.002139  -0.004629  -0.004011   0.002773
    12  H    0.000000   0.000035   0.000043   0.000018   0.000779  -0.000168
    13  C    0.033917  -0.004785  -0.002161   0.014817  -0.000165   0.000091
    14  C   -0.086501   0.041340   0.032337  -0.037297  -0.002083  -0.003628
    15  C   -0.293187   0.183980   0.119987  -0.149072  -0.020882  -0.020098
    16  C    0.674731  -0.278384  -0.035947   0.148576   0.014139   0.043527
    17  C   -0.261956   0.727910  -0.032601  -0.020989  -0.009900  -0.078483
    18  C    0.176436  -0.324079  -0.210685   0.136700   0.039104   0.012579
    19  C   -0.045396   0.039063   0.702964  -0.271560  -0.062147   0.005852
    20  C    0.097043  -0.087398  -0.274218   0.481615   0.037843   0.015755
    21  N   -0.005654  -0.025339  -0.006726  -0.007453   0.342372   0.362279
    22  H    0.003240  -0.000577   0.000045   0.000873   0.000033  -0.000016
    23  H   -0.001787   0.001343   0.000054   0.000297  -0.000012  -0.000056
    24  H    0.002367   0.000181   0.001952  -0.003287   0.000074  -0.000043
    25  H    0.568616  -0.033737   0.000665   0.001275   0.000224   0.001813
    26  H   -0.033737   0.614108  -0.001408   0.000044   0.002060  -0.004098
    27  H    0.000665  -0.001408   0.545230  -0.030325  -0.002262  -0.000498
    28  H    0.001275   0.000044  -0.030325   0.570893   0.001941   0.000227
    29  H    0.000224   0.002060  -0.002262   0.001941   0.366177  -0.020266
    30  H    0.001813  -0.004098  -0.000498   0.000227  -0.020266   0.436747
 Mulliken charges:
               1
     1  C   -0.734674
     2  C    1.022070
     3  C   -0.690223
     4  C   -0.270487
     5  O   -0.320094
     6  O   -0.086478
     7  H    0.205627
     8  H    0.144571
     9  H    0.169839
    10  H    0.162470
    11  H    0.151133
    12  H    0.245548
    13  C   -0.602450
    14  C    0.024096
    15  C    0.826690
    16  C   -1.049635
    17  C    0.182603
    18  C   -0.428316
    19  C    0.330706
    20  C   -0.617510
    21  N   -0.342606
    22  H    0.120921
    23  H    0.134146
    24  H    0.182035
    25  H    0.169325
    26  H    0.149918
    27  H    0.205029
    28  H    0.163962
    29  H    0.303180
    30  H    0.248607
 Sum of Mulliken charges =  -0.00000
 Mulliken charges with hydrogens summed into heavy atoms:
               1
     1  C   -0.214638
     2  C    1.022070
     3  C   -0.376619
     4  C   -0.270487
     5  O   -0.320094
     6  O    0.159069
    13  C   -0.347383
    14  C    0.206131
    15  C    0.826690
    16  C   -0.880310
    17  C    0.332521
    18  C   -0.428316
    19  C    0.535735
    20  C   -0.453548
    21  N    0.209180
 DipInt: DoE/N= T F RetVal/Mat= T F Init=T NMatP=  1 IDeriv=0 Min/MaxMlt=  0  4
 Entering OneElI...
 OneElI was handed 25769286554 working-precision words.
 Multipole integrals L=0 to 4 MinM= 0 MaxM= 0.
 Requested accuracy = 0.1000D-12
 ShPair: Thresh= 1.00D-13 NBox=     0 BxSize= 0.00D+00 RnKept= 2.18D+01
         NSMCal=                13695 NSMKep=               11432
 PrmmSu-InSpLW:  IPartL=    0 NPrtUS=    1 NPrtUL=    1 DoSpLW=F IThBeg=    0 IThEnd=    0 NThAct=    1.
 PrsmSu:  NPrtUS=   1 ThrOK=F IAlg=1 NPAlg=1 LenDen=           0 ISkipM=0 DoSpLW=F IThBeg=    0 IThEnd=    0.
 Prism:   IPart=     0 DynPar=F LinDyn=F Incr=         114.
 PRISM was handed 25768541299 working-precision words and 11432 shell-pairs
 IPart=  0 NShTot=       11432 NBatch=         112 AvBLen=       102.1
 PrsmSu-ThDecC:  IPartSL=    0    0 NPrtUSL=    1    1 IThBeg=    0 IThEnd=    0 CPU=   -1 GPU=   -1 NThAct=    1.
 PrSmSu:  NxtVal=            115.
 Electronic moments (au):
       -110.00000000          1.37436442          1.13311182          1.25021373
      -4181.86694255       -646.06287769       -362.30603777          7.50297855
          2.91205453         -4.14915525       1112.53508007        -19.49799665
        -46.63246518       -579.53484018      -4408.76445990        885.40296989
        362.01964202        128.63182782       -363.87972739      -1079.79403375
    -285423.53121115      -9520.67553980      -3258.75029799      14372.53735307
      -1366.80280042      -2925.65080833        384.38379625        241.01748665
        212.97434465     -22162.92361138      -9930.48661412      -1947.68213488
      -1764.23138381      -1584.89479087       -455.18433233
 Electronic spatial extent (au):  <R**2>=           5190.2359
 DipInt: DoE/N= F T RetVal/Mat= T F Init=T NMatP=  1 IDeriv=0 Min/MaxMlt=  0  4
 Nuclear    moments (au):
        110.00000000         -0.00000000          0.00000000         -0.00000000
       4119.55506612        581.04317326        295.51010454         -0.00000000
         -0.00000000          0.00000000       -924.57109718         20.31582855
         48.77412614        608.39629117       4484.02249733       -821.29777242
       -351.91180813       -137.01817302        381.26830135       1080.33224405
     271215.02993204       7265.98353238       1972.93800092     -13879.85096375
       1374.64290855       2896.10154680       -453.78619877       -346.46464501
       -263.44340081      19240.65371501       7027.29184477       1385.65458104
       1647.38378194       1622.69625804        489.53286696
 Total      moments (au):
         -0.00000000          1.37436442          1.13311182          1.25021373
        -62.31187643        -65.01970443        -66.79593323          7.50297855
          2.91205453         -4.14915525        187.96398289          0.81783190
          2.14166096         28.86145099         75.25803743         64.10519747
         10.10783390         -8.38634520         17.38857396          0.53821030
     -14208.50127911      -2254.69200742      -1285.81229707        492.68638933
          7.84010813        -29.54926153        -69.40240251       -105.44715837
        -50.46905616      -2922.26989637      -2903.19476935       -562.02755384
       -116.84760187         37.80146716         34.34853463
 Traceless Quadrup. (au):
          2.39729493         -0.31053306         -2.08676187          7.50297855
          2.91205453         -4.14915525
 Charge=             -0.0000 electrons
 Dipole moment (field-independent basis, Debye):
    X=              3.4933    Y=              2.8801    Z=              3.1777  Tot=              5.5314
 Quadrupole moment (field-independent basis, Debye-Ang):
   XX=            -83.8116   YY=            -87.4537   ZZ=            -89.8428
   XY=             10.0918   XZ=              3.9168   YZ=             -5.5808
 Traceless Quadrupole moment (field-independent basis, Debye-Ang):
   XX=              3.2244   YY=             -0.4177   ZZ=             -2.8068
   XY=             10.0918   XZ=              3.9168   YZ=             -5.5808
 Octapole moment (field-independent basis, Debye-Ang**2):
  XXX=            133.7855  YYY=              0.5821  ZZZ=              1.5244  XYY=             20.5425
  XXY=             53.5658  XXZ=             45.6276  XZZ=              7.1944  YZZ=             -5.9691
  YYZ=             12.3765  XYZ=              0.3831
 Hexadecapole moment (field-independent basis, Debye-Ang**3):
 XXXX=          -5351.6029 YYYY=           -849.2251 ZZZZ=           -484.2986 XXXY=            185.5693
 XXXZ=              2.9530 YYYX=            -11.1297 YYYZ=            -26.1403 ZZZX=            -39.7165
 ZZZY=            -19.0091 XXYY=          -1100.6670 XXZZ=          -1093.4824 YYZZ=           -211.6865
 XXYZ=            -44.0104 YYXZ=             14.2378 ZZXY=             12.9373
 N-N= 8.976341006646D+02 E-N=-3.360496252428D+03  KE= 6.689822559149D+02
 Entering OneElI...
 OneElI was handed 25769400089 working-precision words.
 Calculate electrostatic properties
    NBasis =   435  MinDer = 0  MaxDer = 0
    NGrid  =    30  NMatD  =   1
 Requested accuracy = 0.1000D-12
 ShPair: Thresh= 1.00D-13 NBox=     0 BxSize= 0.00D+00 RnKept= 2.18D+01
         NSMCal=                13695 NSMKep=               10574
 PrmmSu-InSpLW:  IPartL=    0 NPrtUS=   48 NPrtUL=    1 DoSpLW=F IThBeg=    0 IThEnd=   47 NThAct=   48.
 PrsmSu:  NPrtUS=  48 ThrOK=T IAlg=1 NPAlg=1 LenDen=           0 ISkipM=0 DoSpLW=F IThBeg=    0 IThEnd=   47.
 Prism:   IPart=     0 DynPar=F LinDyn=F Incr=          66.
 PRISM was handed   536646466 working-precision words and 10574 shell-pairs
 PRISM was handed   536646466 working-precision words and 10574 shell-pairs
 PRISM was handed   536646466 working-precision words and 10574 shell-pairs
 PRISM was handed   536646466 working-precision words and 10574 shell-pairs
 PRISM was handed   536646466 working-precision words and 10574 shell-pairs
 PRISM was handed   536646466 working-precision words and 10574 shell-pairs
 PRISM was handed   536646466 working-precision words and 10574 shell-pairs
 PRISM was handed   536646466 working-precision words and 10574 shell-pairs
 PRISM was handed   536646466 working-precision words and 10574 shell-pairs
 PRISM was handed   536646466 working-precision words and 10574 shell-pairs
 PRISM was handed   536646466 working-precision words and 10574 shell-pairs
 PRISM was handed   536646466 working-precision words and 10574 shell-pairs
 PRISM was handed   536646466 working-precision words and 10574 shell-pairs
 PRISM was handed   536646466 working-precision words and 10574 shell-pairs
 PRISM was handed   536646466 working-precision words and 10574 shell-pairs
 PRISM was handed   536646466 working-precision words and 10574 shell-pairs
 PRISM was handed   536646466 working-precision words and 10574 shell-pairs
 PRISM was handed   536646466 working-precision words and 10574 shell-pairs
 PRISM was handed   536646466 working-precision words and 10574 shell-pairs
 PRISM was handed   536646466 working-precision words and 10574 shell-pairs
 PRISM was handed   536646466 working-precision words and 10574 shell-pairs
 PRISM was handed   536646466 working-precision words and 10574 shell-pairs
 PRISM was handed   536646466 working-precision words and 10574 shell-pairs
 PRISM was handed   536646466 working-precision words and 10574 shell-pairs
 PRISM was handed   536646466 working-precision words and 10574 shell-pairs
 PRISM was handed   536646466 working-precision words and 10574 shell-pairs
 PRISM was handed   536646466 working-precision words and 10574 shell-pairs
 PRISM was handed   536646466 working-precision words and 10574 shell-pairs
 PRISM was handed   536646466 working-precision words and 10574 shell-pairs
 PRISM was handed   536646466 working-precision words and 10574 shell-pairs
 PRISM was handed   536646466 working-precision words and 10574 shell-pairs
 PRISM was handed   536646466 working-precision words and 10574 shell-pairs
 PRISM was handed   536646466 working-precision words and 10574 shell-pairs
 PRISM was handed   536646466 working-precision words and 10574 shell-pairs
 PRISM was handed   536646466 working-precision words and 10574 shell-pairs
 PRISM was handed   536646466 working-precision words and 10574 shell-pairs
 PRISM was handed   536646466 working-precision words and 10574 shell-pairs
 PRISM was handed   536646466 working-precision words and 10574 shell-pairs
 PRISM was handed   536646466 working-precision words and 10574 shell-pairs
 PRISM was handed   536646466 working-precision words and 10574 shell-pairs
 PRISM was handed   536646466 working-precision words and 10574 shell-pairs
 PRISM was handed   536646466 working-precision words and 10574 shell-pairs
 PRISM was handed   536646466 working-precision words and 10574 shell-pairs
 PRISM was handed   536646466 working-precision words and 10574 shell-pairs
 PRISM was handed   536646466 working-precision words and 10574 shell-pairs
 PRISM was handed   536646466 working-precision words and 10574 shell-pairs
 PRISM was handed   536646466 working-precision words and 10574 shell-pairs
 PRISM was handed   536646466 working-precision words and 10574 shell-pairs
 IPart=  4 NShTot=        7290 NBatch=         243 AvBLen=        30.0
 PrsmSu-ThDecC:  IPartSL=    4    0 NPrtUSL=   48    1 IThBeg=    0 IThEnd=   47 CPU=   -1 GPU=   -1 NThAct=   48.
 IPart=  2 NShTot=        7410 NBatch=         247 AvBLen=        30.0
 IPart=  0 NShTot=        7680 NBatch=         256 AvBLen=        30.0
 PrsmSu-ThDecC:  IPartSL=    2    0 NPrtUSL=   48    1 IThBeg=    0 IThEnd=   47 CPU=   -1 GPU=   -1 NThAct=   47.
 PrsmSu-ThDecC:  IPartSL=    0    0 NPrtUSL=   48    1 IThBeg=    0 IThEnd=   47 CPU=   -1 GPU=   -1 NThAct=   46.
 IPart=  1 NShTot=        7530 NBatch=         251 AvBLen=        30.0
 PrsmSu-ThDecC:  IPartSL=    1    0 NPrtUSL=   48    1 IThBeg=    0 IThEnd=   47 CPU=   -1 GPU=   -1 NThAct=   45.
 IPart= 47 NShTot=        6120 NBatch=         204 AvBLen=        30.0
 PrsmSu-ThDecC:  IPartSL=   47    0 NPrtUSL=   48    1 IThBeg=    0 IThEnd=   47 CPU=   -1 GPU=   -1 NThAct=   44.
 IPart= 23 NShTot=        6450 NBatch=         215 AvBLen=        30.0
 PrsmSu-ThDecC:  IPartSL=   23    0 NPrtUSL=   48    1 IThBeg=    0 IThEnd=   47 CPU=   -1 GPU=   -1 NThAct=   43.
 IPart=  8 NShTot=        7140 NBatch=         238 AvBLen=        30.0
 PrsmSu-ThDecC:  IPartSL=    8    0 NPrtUSL=   48    1 IThBeg=    0 IThEnd=   47 CPU=   -1 GPU=   -1 NThAct=   42.
 IPart=  9 NShTot=        7140 NBatch=         238 AvBLen=        30.0
 IPart=  5 NShTot=        7260 NBatch=         242 AvBLen=        30.0
 PrsmSu-ThDecC:  IPartSL=    9    0 NPrtUSL=   48    1 IThBeg=    0 IThEnd=   47 CPU=   -1 GPU=   -1 NThAct=   41.
 PrsmSu-ThDecC:  IPartSL=    5    0 NPrtUSL=   48    1 IThBeg=    0 IThEnd=   47 CPU=   -1 GPU=   -1 NThAct=   40.
 IPart= 31 NShTot=        6360 NBatch=         212 AvBLen=        30.0
 PrsmSu-ThDecC:  IPartSL=   31    0 NPrtUSL=   48    1 IThBeg=    0 IThEnd=   47 CPU=   -1 GPU=   -1 NThAct=   39.
 IPart= 39 NShTot=        6180 NBatch=         206 AvBLen=        30.0
 PrsmSu-ThDecC:  IPartSL=   39    0 NPrtUSL=   48    1 IThBeg=    0 IThEnd=   47 CPU=   -1 GPU=   -1 NThAct=   38.
 IPart= 29 NShTot=        6390 NBatch=         213 AvBLen=        30.0
 PrsmSu-ThDecC:  IPartSL=   29    0 NPrtUSL=   48    1 IThBeg=    0 IThEnd=   47 CPU=   -1 GPU=   -1 NThAct=   37.
 IPart= 14 NShTot=        6870 NBatch=         229 AvBLen=        30.0
 PrsmSu-ThDecC:  IPartSL=   14    0 NPrtUSL=   48    1 IThBeg=    0 IThEnd=   47 CPU=   -1 GPU=   -1 NThAct=   36.
 IPart= 34 NShTot=        6330 NBatch=         211 AvBLen=        30.0
 PrsmSu-ThDecC:  IPartSL=   34    0 NPrtUSL=   48    1 IThBeg=    0 IThEnd=   47 CPU=   -1 GPU=   -1 NThAct=   35.
 IPart= 45 NShTot=        6120 NBatch=         204 AvBLen=        30.0
 IPart= 24 NShTot=        6420 NBatch=         214 AvBLen=        30.0
 PrsmSu-ThDecC:  IPartSL=   45    0 NPrtUSL=   48    1 IThBeg=    0 IThEnd=   47 CPU=   -1 GPU=   -1 NThAct=   34.
 PrsmSu-ThDecC:  IPartSL=   24    0 NPrtUSL=   48    1 IThBeg=    0 IThEnd=   47 CPU=   -1 GPU=   -1 NThAct=   33.
 IPart= 26 NShTot=        6390 NBatch=         213 AvBLen=        30.0
 PrsmSu-ThDecC:  IPartSL=   26    0 NPrtUSL=   48    1 IThBeg=    0 IThEnd=   47 CPU=   -1 GPU=   -1 NThAct=   32.
 IPart= 22 NShTot=        6480 NBatch=         216 AvBLen=        30.0
 PrsmSu-ThDecC:  IPartSL=   22    0 NPrtUSL=   48    1 IThBeg=    0 IThEnd=   47 CPU=   -1 GPU=   -1 NThAct=   31.
 IPart= 15 NShTot=        6690 NBatch=         223 AvBLen=        30.0
 PrsmSu-ThDecC:  IPartSL=   15    0 NPrtUSL=   48    1 IThBeg=    0 IThEnd=   47 CPU=   -1 GPU=   -1 NThAct=   30.
 IPart= 36 NShTot=        6300 NBatch=         210 AvBLen=        30.0
 PrsmSu-ThDecC:  IPartSL=   36    0 NPrtUSL=   48    1 IThBeg=    0 IThEnd=   47 CPU=   -1 GPU=   -1 NThAct=   29.
 IPart= 35 NShTot=        6330 NBatch=         211 AvBLen=        30.0
 PrsmSu-ThDecC:  IPartSL=   35    0 NPrtUSL=   48    1 IThBeg=    0 IThEnd=   47 CPU=   -1 GPU=   -1 NThAct=   28.
 IPart= 19 NShTot=        6510 NBatch=         217 AvBLen=        30.0
 PrsmSu-ThDecC:  IPartSL=   19    0 NPrtUSL=   48    1 IThBeg=    0 IThEnd=   47 CPU=   -1 GPU=   -1 NThAct=   27.
 IPart= 18 NShTot=        6540 NBatch=         218 AvBLen=        30.0
 PrsmSu-ThDecC:  IPartSL=   18    0 NPrtUSL=   48    1 IThBeg=    0 IThEnd=   47 CPU=   -1 GPU=   -1 NThAct=   26.
 IPart= 32 NShTot=        6360 NBatch=         212 AvBLen=        30.0
 PrsmSu-ThDecC:  IPartSL=   32    0 NPrtUSL=   48    1 IThBeg=    0 IThEnd=   47 CPU=   -1 GPU=   -1 NThAct=   25.
 IPart= 43 NShTot=        6120 NBatch=         204 AvBLen=        30.0
 PrsmSu-ThDecC:  IPartSL=   43    0 NPrtUSL=   48    1 IThBeg=    0 IThEnd=   47 CPU=   -1 GPU=   -1 NThAct=   24.
 IPart= 11 NShTot=        7020 NBatch=         234 AvBLen=        30.0
 PrsmSu-ThDecC:  IPartSL=   11    0 NPrtUSL=   48    1 IThBeg=    0 IThEnd=   47 CPU=   -1 GPU=   -1 NThAct=   23.
 IPart=  6 NShTot=        7170 NBatch=         239 AvBLen=        30.0
 PrsmSu-ThDecC:  IPartSL=    6    0 NPrtUSL=   48    1 IThBeg=    0 IThEnd=   47 CPU=   -1 GPU=   -1 NThAct=   22.
 IPart= 37 NShTot=        6300 NBatch=         210 AvBLen=        30.0
 PrsmSu-ThDecC:  IPartSL=   37    0 NPrtUSL=   48    1 IThBeg=    0 IThEnd=   47 CPU=   -1 GPU=   -1 NThAct=   21.
 IPart= 40 NShTot=        6180 NBatch=         206 AvBLen=        30.0
 IPart= 10 NShTot=        7050 NBatch=         235 AvBLen=        30.0
 PrsmSu-ThDecC:  IPartSL=   40    0 NPrtUSL=   48    1 IThBeg=    0 IThEnd=   47 CPU=   -1 GPU=   -1 NThAct=   20.
 PrsmSu-ThDecC:  IPartSL=   10    0 NPrtUSL=   48    1 IThBeg=    0 IThEnd=   47 CPU=   -1 GPU=   -1 NThAct=   19.
 IPart=  7 NShTot=        7140 NBatch=         238 AvBLen=        30.0
 PrsmSu-ThDecC:  IPartSL=    7    0 NPrtUSL=   48    1 IThBeg=    0 IThEnd=   47 CPU=   -1 GPU=   -1 NThAct=   18.
 IPart= 30 NShTot=        6390 NBatch=         213 AvBLen=        30.0
 PrsmSu-ThDecC:  IPartSL=   30    0 NPrtUSL=   48    1 IThBeg=    0 IThEnd=   47 CPU=   -1 GPU=   -1 NThAct=   17.
 IPart= 13 NShTot=        6870 NBatch=         229 AvBLen=        30.0
 PrsmSu-ThDecC:  IPartSL=   13    0 NPrtUSL=   48    1 IThBeg=    0 IThEnd=   47 CPU=   -1 GPU=   -1 NThAct=   16.
 IPart= 46 NShTot=        6120 NBatch=         204 AvBLen=        30.0
 PrsmSu-ThDecC:  IPartSL=   46    0 NPrtUSL=   48    1 IThBeg=    0 IThEnd=   47 CPU=   -1 GPU=   -1 NThAct=   15.
 IPart= 16 NShTot=        6630 NBatch=         221 AvBLen=        30.0
 PrsmSu-ThDecC:  IPartSL=   16    0 NPrtUSL=   48    1 IThBeg=    0 IThEnd=   47 CPU=   -1 GPU=   -1 NThAct=   14.
 IPart= 41 NShTot=        6150 NBatch=         205 AvBLen=        30.0
 PrsmSu-ThDecC:  IPartSL=   41    0 NPrtUSL=   48    1 IThBeg=    0 IThEnd=   47 CPU=   -1 GPU=   -1 NThAct=   13.
 IPart= 33 NShTot=        6330 NBatch=         211 AvBLen=        30.0
 PrsmSu-ThDecC:  IPartSL=   33    0 NPrtUSL=   48    1 IThBeg=    0 IThEnd=   47 CPU=   -1 GPU=   -1 NThAct=   12.
 IPart= 25 NShTot=        6390 NBatch=         213 AvBLen=        30.0
 PrsmSu-ThDecC:  IPartSL=   25    0 NPrtUSL=   48    1 IThBeg=    0 IThEnd=   47 CPU=   -1 GPU=   -1 NThAct=   11.
 IPart= 28 NShTot=        6390 NBatch=         213 AvBLen=        30.0
 PrsmSu-ThDecC:  IPartSL=   28    0 NPrtUSL=   48    1 IThBeg=    0 IThEnd=   47 CPU=   -1 GPU=   -1 NThAct=   10.
 IPart= 44 NShTot=        6120 NBatch=         204 AvBLen=        30.0
 PrsmSu-ThDecC:  IPartSL=   44    0 NPrtUSL=   48    1 IThBeg=    0 IThEnd=   47 CPU=   -1 GPU=   -1 NThAct=    9.
 IPart= 42 NShTot=        6120 NBatch=         204 AvBLen=        30.0
 PrsmSu-ThDecC:  IPartSL=   42    0 NPrtUSL=   48    1 IThBeg=    0 IThEnd=   47 CPU=   -1 GPU=   -1 NThAct=    8.
 IPart= 12 NShTot=        6930 NBatch=         231 AvBLen=        30.0
 PrsmSu-ThDecC:  IPartSL=   12    0 NPrtUSL=   48    1 IThBeg=    0 IThEnd=   47 CPU=   -1 GPU=   -1 NThAct=    7.
 IPart= 27 NShTot=        6390 NBatch=         213 AvBLen=        30.0
 PrsmSu-ThDecC:  IPartSL=   27    0 NPrtUSL=   48    1 IThBeg=    0 IThEnd=   47 CPU=   -1 GPU=   -1 NThAct=    6.
 IPart= 38 NShTot=        6180 NBatch=         206 AvBLen=        30.0
 PrsmSu-ThDecC:  IPartSL=   38    0 NPrtUSL=   48    1 IThBeg=    0 IThEnd=   47 CPU=   -1 GPU=   -1 NThAct=    5.
 IPart= 21 NShTot=        6480 NBatch=         216 AvBLen=        30.0
 PrsmSu-ThDecC:  IPartSL=   21    0 NPrtUSL=   48    1 IThBeg=    0 IThEnd=   47 CPU=   -1 GPU=   -1 NThAct=    4.
 IPart= 20 NShTot=        6510 NBatch=         217 AvBLen=        30.0
 PrsmSu-ThDecC:  IPartSL=   20    0 NPrtUSL=   48    1 IThBeg=    0 IThEnd=   47 CPU=   -1 GPU=   -1 NThAct=    3.
 IPart=  3 NShTot=        7350 NBatch=         245 AvBLen=        30.0
 PrsmSu-ThDecC:  IPartSL=    3    0 NPrtUSL=   48    1 IThBeg=    0 IThEnd=   47 CPU=   -1 GPU=   -1 NThAct=    2.
 IPart= 17 NShTot=        6600 NBatch=         220 AvBLen=        30.0
 PrsmSu-ThDecC:  IPartSL=   17    0 NPrtUSL=   48    1 IThBeg=    0 IThEnd=   47 CPU=   -1 GPU=   -1 NThAct=    1.
 PrSmSu:  NxtVal=           3169.
 --------------------------------------------------------
       Center         ----      EFG at Nuclei      ----
                      3XX-RR        3YY-RR        3ZZ-RR
 --------------------------------------------------------
     1   Atom       -0.022451     -0.019643      0.042095
     2   Atom        0.197540     -0.054782     -0.142758
     3   Atom        0.238659     -0.000191     -0.238467
     4   Atom        0.006676      0.122801     -0.129478
     5   Atom        0.665243     -0.085945     -0.579297
     6   Atom       -1.138663      0.462754      0.675909
     7   Atom        0.084791      0.124742     -0.209533
     8   Atom       -0.118335      0.091125      0.027210
     9   Atom        0.081530     -0.175297      0.093768
    10   Atom        0.141258     -0.165849      0.024591
    11   Atom       -0.132642      0.001167      0.131475
    12   Atom        0.027900     -0.084263      0.056362
    13   Atom        0.187238      0.048685     -0.235923
    14   Atom        0.210633      0.024508     -0.235141
    15   Atom        0.029952     -0.080059      0.050106
    16   Atom        0.002948     -0.108242      0.105294
    17   Atom        0.072356     -0.085871      0.013514
    18   Atom       -0.047481     -0.183580      0.231061
    19   Atom       -0.004874     -0.040903      0.045777
    20   Atom       -0.004932     -0.095618      0.100550
    21   Atom       -0.334105      0.307193      0.026912
    22   Atom       -0.129752     -0.040665      0.170417
    23   Atom        0.128397     -0.208871      0.080474
    24   Atom        0.136674     -0.268021      0.131347
    25   Atom       -0.035529      0.144317     -0.108788
    26   Atom        0.158063      0.105492     -0.263555
    27   Atom       -0.020091      0.120295     -0.100203
    28   Atom        0.158111      0.072144     -0.230255
    29   Atom       -0.254275      0.203796      0.050478
    30   Atom        0.172554      0.046265     -0.218818
 --------------------------------------------------------
                        XY            XZ            YZ
 --------------------------------------------------------
     1   Atom       -0.047478     -0.019745      0.013740
     2   Atom       -0.020398     -0.085102      0.096081
     3   Atom        0.082410     -0.102866      0.264190
     4   Atom        0.077166      0.071752      0.352947
     5   Atom       -0.951609     -0.561854      0.584669
     6   Atom       -0.319716     -0.449801     -0.568694
     7   Atom       -0.043715      0.161204      0.092655
     8   Atom        0.126164     -0.193932      0.079423
     9   Atom        0.143880      0.066235     -0.147377
    10   Atom        0.070139      0.048520     -0.218710
    11   Atom       -0.208906     -0.092570     -0.071674
    12   Atom       -0.253658     -0.208893     -0.297292
    13   Atom        0.002497     -0.096526     -0.123513
    14   Atom       -0.012903     -0.113059     -0.154340
    15   Atom       -0.127865     -0.043564     -0.082632
    16   Atom       -0.232249     -0.047267     -0.080554
    17   Atom       -0.120552      0.000987     -0.079458
    18   Atom       -0.116413     -0.133123     -0.088816
    19   Atom       -0.150031     -0.061911     -0.073343
    20   Atom       -0.223923     -0.073166     -0.107254
    21   Atom        0.449167      0.333382      0.697361
    22   Atom        0.241878     -0.005233      0.014374
    23   Atom       -0.100174      0.053709      0.185083
    24   Atom       -0.088721      0.029459      0.134349
    25   Atom        0.075998      0.227022     -0.074534
    26   Atom        0.030861     -0.034867      0.162125
    27   Atom        0.103107      0.216399     -0.098852
    28   Atom       -0.000519      0.021212      0.195760
    29   Atom        0.009797      0.257042      0.041136
    30   Atom       -0.001313      0.060878      0.292846
 --------------------------------------------------------


 ---------------------------------------------------------------------------------
              Nuclear Quadrupole Coupling Constant in Principal Axis System
 ---------------------------------------------------------------------------------

       Atom             a.u.   MegaHertz   Gauss  10(-4) cm-1        Axes

              Baa    -0.5735     2.754     0.983     0.919  0.7104 -0.6224  0.3284
    21 N(14)  Bbb    -0.5231     2.512     0.896     0.838 -0.6024 -0.2965  0.7411
              Bcc     1.0966    -5.267    -1.879    -1.757  0.3639  0.7243  0.5856
 

 ---------------------------------------------------------------------------------

 No NMR shielding tensors so no spin-rotation constants.
 Leave Link  601 at Thu Apr 21 11:01:33 2022, MaxMem= 25769803776 cpu:              19.5 elap:               0.5
 Calling FoFJK, ICntrl=      2127 FMM=F ISym2X=0 I1Cent= 0 IOpClX= 0 NMat=1 NMatS=1 NMatT=0.
 ***** Axes restored to original set *****
 -------------------------------------------------------------------
 Center     Atomic                   Forces (Hartrees/Bohr)
 Number     Number              X              Y              Z
 -------------------------------------------------------------------
      1        6          -0.002295134    0.002939201   -0.002608717
      2        6           0.019150712    0.014047146    0.001238682
      3        6          -0.004850917   -0.004618696   -0.006792399
      4        6          -0.004624237   -0.005205289    0.003801715
      5        8          -0.040045387    0.005119348   -0.024904245
      6        8           0.008747243   -0.006270264    0.000030145
      7        1          -0.000185482    0.002380246   -0.006507105
      8        1          -0.001316952    0.001903568    0.011208449
      9        1           0.003771250   -0.004857521    0.007865745
     10        1           0.000657311    0.002245117    0.000589322
     11        1          -0.004380719   -0.002731061    0.002171716
     12        1           0.021680448   -0.005255298    0.014048676
     13        6          -0.013516136    0.025703801   -0.001541908
     14        6          -0.025884807    0.011428231    0.010275458
     15        6           0.054710030   -0.039852298    0.003639684
     16        6          -0.002868079   -0.023006669   -0.015287678
     17        6           0.012787809   -0.012076985   -0.029919011
     18        6           0.022681763    0.032979600   -0.014117421
     19        6          -0.035986841    0.039322536   -0.012577105
     20        6          -0.009459030   -0.017362428    0.055718868
     21        7          -0.018918993   -0.018719272    0.020580484
     22        1           0.002373049    0.006925533   -0.002027365
     23        1           0.002938635   -0.009285775   -0.003395838
     24        1           0.004820955   -0.000194350   -0.011034196
     25        1           0.001389397    0.012368717   -0.003833661
     26        1          -0.000501131    0.001351643    0.003576975
     27        1           0.005998889   -0.005496221    0.006135511
     28        1          -0.007150822    0.003070044   -0.005188238
     29        1          -0.001833738    0.001010335   -0.000941839
     30        1           0.012110914   -0.007862940   -0.000204707
[...]
 **** Fit       0.011824
 **** Fit       0.016006
 **** Fit       0.021684
 **** Fit       0.028978
 **** Fit       0.037504
 **** Fit       0.046013
 **** Fit       0.052414
 **** Fit       0.054785
 **** Fit       0.052854
 **** Fit       0.048137
 **** Fit       0.042518
 **** Fit       0.037145
 **** Fit       0.032399
 **** Fit       0.028282
 **** Fit       0.024708
 **** Fit       0.021607
 **** Fit       0.018934
 **** Fit       0.011083
 **** Fit       0.014267
 **** Fit       0.018472
 **** Fit       0.023868
 **** Fit       0.030432
 **** Fit       0.037733
 **** Fit       0.044738
 **** Fit       0.049929
 **** Fit       0.051999
 **** Fit       0.050752
 **** Fit       0.047175
 **** Fit       0.042594
 **** Fit       0.037921
 **** Fit       0.033537
 **** Fit       0.029536
 **** Fit       0.025930
 **** Fit       0.022727
 **** Fit       0.019930
 **** Fit       0.017524
 **** Fit       0.015710
 **** Fit       0.019625
 **** Fit       0.024397
 **** Fit       0.029912
 **** Fit       0.035764
 **** Fit       0.041182
 **** Fit       0.045174
 **** Fit       0.046953
 **** Fit       0.046398
 **** Fit       0.044075
 **** Fit       0.040789
 **** Fit       0.037142
 **** Fit       0.033441
 **** Fit       0.029828
 **** Fit       0.026407
 **** Fit       0.023272
 **** Fit       0.020483
 **** Fit       0.018057
 **** Fit       0.016349
 **** Fit       0.019814
 **** Fit       0.023846
 **** Fit       0.028296
 **** Fit       0.032827
 **** Fit       0.036908
 **** Fit       0.039933
 **** Fit       0.041457
 **** Fit       0.041414
 **** Fit       0.040102
 **** Fit       0.037954
 **** Fit       0.035306
 **** Fit       0.032360
 **** Fit       0.029266
 **** Fit       0.026181
 **** Fit       0.023254
 **** Fit       0.020593
 **** Fit       0.018243
 **** Fit       0.019377
 **** Fit       0.022698
 **** Fit       0.026220
 **** Fit       0.029687
 **** Fit       0.032753
 **** Fit       0.035059
 **** Fit       0.036362
 **** Fit       0.036625
 **** Fit       0.035993
 **** Fit       0.034672
 **** Fit       0.032823
 **** Fit       0.030561
 **** Fit       0.028013
 **** Fit       0.025347
 **** Fit       0.022732
 **** Fit       0.020296
 **** Fit       0.018105
 **** Fit       0.024056
 **** Fit       0.026719
 **** Fit       0.029047
 **** Fit       0.030831
 **** Fit       0.031936
 **** Fit       0.032339
 **** Fit       0.032102
 **** Fit       0.031312
 **** Fit       0.030032
 **** Fit       0.028324
 **** Fit       0.026285
 **** Fit       0.024063
 **** Fit       0.021815
 **** Fit       0.019667
 **** Fit       0.017693
 **** Fit       0.025856
 **** Fit       0.027257
 **** Fit       0.028185
 **** Fit       0.028620
 **** Fit       0.028584
 **** Fit       0.028105
 **** Fit       0.027207
 **** Fit       0.025920
 **** Fit       0.024318
 **** Fit       0.022515
 **** Fit       0.020639
 **** Fit       0.018801
 **** Fit       0.025027
 **** Fit       0.025438
 **** Fit       0.025488
 **** Fit       0.025186
 **** Fit       0.024537
 **** Fit       0.023562
 **** Fit       0.022313
 **** Fit       0.020872
 **** Fit       0.019337
 **** Fit       0.022726
 **** Fit       0.022807
 **** Fit       0.022606
 **** Fit       0.022124
 **** Fit       0.021376
 **** Fit       0.020401
 **** Fit       0.019256
 **** Fit       0.020359
 **** Fit       0.019993
 **** Fit       0.019413
 **** Fit      -0.019731
 **** Fit      -0.020366
 **** Fit      -0.020372
 **** Fit      -0.019658
 **** Fit      -0.018234
 **** Fit      -0.016227
 **** Fit      -0.019400
 **** Fit      -0.020779
 **** Fit      -0.021623
 **** Fit      -0.021711
 **** Fit      -0.020898
 **** Fit      -0.019186
 **** Fit      -0.016745
 **** Fit      -0.013874
 **** Fit      -0.010906
 **** Fit      -0.017832
 **** Fit      -0.019788
 **** Fit      -0.021449
 **** Fit      -0.022522
 **** Fit      -0.022710
 **** Fit      -0.021800
 **** Fit      -0.019776
 **** Fit      -0.016858
 **** Fit      -0.013450
 **** Fit      -0.009997
 **** Fit      -0.006850
 **** Fit      -0.015162
 **** Fit      -0.017312
 **** Fit      -0.019435
 **** Fit      -0.021276
 **** Fit      -0.022493
 **** Fit      -0.022722
 **** Fit      -0.021697
 **** Fit      -0.019379
 **** Fit      -0.016032
 **** Fit      -0.012161
 **** Fit      -0.008320
 **** Fit      -0.004928
 **** Fit      -0.013783
 **** Fit      -0.015849
 **** Fit      -0.017885
 **** Fit      -0.019622
 **** Fit      -0.020705
 **** Fit      -0.020768
 **** Fit      -0.019553
 **** Fit      -0.017026
 **** Fit      -0.013465
 **** Fit      -0.009412
 **** Fit      -0.005475
 **** Fit      -0.002107
 **** Fit       0.000495
 **** Fit      -0.011520
 **** Fit      -0.013190
 **** Fit      -0.014742
 **** Fit      -0.015906
 **** Fit      -0.016374
 **** Fit      -0.015894
 **** Fit      -0.014343
 **** Fit      -0.011754
 **** Fit      -0.008366
 **** Fit      -0.004638
 **** Fit      -0.001114
 **** Fit       0.001796
 **** Fit       0.003927
 **** Fit      -0.008361
 **** Fit      -0.009291
 **** Fit      -0.009915
 **** Fit      -0.009982
 **** Fit      -0.009297
 **** Fit      -0.007844
 **** Fit      -0.005773
 **** Fit      -0.003268
 **** Fit      -0.000493
 **** Fit       0.002311
 **** Fit       0.004818
 **** Fit       0.006765
 **** Fit       0.008051
 **** Fit       0.008730
 **** Fit      -0.004488
 **** Fit      -0.004415
 **** Fit      -0.003788
 **** Fit      -0.002397
 **** Fit      -0.000207
 **** Fit       0.002504
 **** Fit       0.005236
 **** Fit       0.007587
 **** Fit       0.009449
 **** Fit       0.010876
 **** Fit       0.011892
 **** Fit       0.012475
 **** Fit       0.012625
 **** Fit       0.012403
 **** Fit      -0.000259
 **** Fit       0.000903
 **** Fit       0.002852
 **** Fit       0.005738
 **** Fit       0.009435
 **** Fit       0.013399
 **** Fit       0.016808
 **** Fit       0.019011
 **** Fit       0.019909
 **** Fit       0.019841
 **** Fit       0.019222
 **** Fit       0.018312
 **** Fit       0.017237
 **** Fit       0.016060
 **** Fit       0.003888
 **** Fit       0.006022
 **** Fit       0.009092
 **** Fit       0.013177
 **** Fit       0.018027
 **** Fit       0.022925
 **** Fit       0.026831
 **** Fit       0.028909
 **** Fit       0.029026
 **** Fit       0.027727
 **** Fit       0.025731
 **** Fit       0.023545
 **** Fit       0.021405
 **** Fit       0.019389
 **** Fit       0.017515
 **** Fit       0.007561
 **** Fit       0.010397
 **** Fit       0.014197
 **** Fit       0.018969
 **** Fit       0.024384
 **** Fit       0.029664
 **** Fit       0.033719
 **** Fit       0.035659
 **** Fit       0.035332
 **** Fit       0.033343
 **** Fit       0.030541
 **** Fit       0.027563
 **** Fit       0.024721
 **** Fit       0.022119
 **** Fit       0.019768
 **** Fit       0.010502
 **** Fit       0.013708
 **** Fit       0.017793
 **** Fit       0.022697
 **** Fit       0.028061
 **** Fit       0.033144
 **** Fit       0.036968
 **** Fit       0.038741
 **** Fit       0.038316
 **** Fit       0.036228
 **** Fit       0.033268
 **** Fit       0.030064
 **** Fit       0.026958
 **** Fit       0.024080
 **** Fit       0.021465
 **** Fit       0.019115
 **** Fit       0.012618
 **** Fit       0.015888
 **** Fit       0.019878
 **** Fit       0.024478
 **** Fit       0.029337
 **** Fit       0.033825
 **** Fit       0.037166
 **** Fit       0.038751
 **** Fit       0.038463
 **** Fit       0.036694
 **** Fit       0.034059
 **** Fit       0.031086
 **** Fit       0.028089
 **** Fit       0.025221
 **** Fit       0.022548
 **** Fit       0.020107
 **** Fit       0.017063
 **** Fit       0.020709
 **** Fit       0.024757
 **** Fit       0.028895
 **** Fit       0.032634
 **** Fit       0.035414
 **** Fit       0.036814
 **** Fit       0.036746
 **** Fit       0.035464
 **** Fit       0.033385
 **** Fit       0.030891
 **** Fit       0.028239
 **** Fit       0.025582
 **** Fit       0.023019
 **** Fit       0.020620
 **** Fit       0.018431
 **** Fit       0.017452
 **** Fit       0.020639
 **** Fit       0.024057
 **** Fit       0.027452
 **** Fit       0.030467
 **** Fit       0.032725
 **** Fit       0.033953
 **** Fit       0.034087
 **** Fit       0.033273
 **** Fit       0.031767
 **** Fit       0.029814
 **** Fit       0.027602
 **** Fit       0.025269
 **** Fit       0.022928
 **** Fit       0.020674
 **** Fit       0.018576
 **** Fit       0.020000
 **** Fit       0.022819
 **** Fit       0.025553
 **** Fit       0.027953
 **** Fit       0.029774
 **** Fit       0.030843
 **** Fit       0.031115
 **** Fit       0.030665
 **** Fit       0.029635
 **** Fit       0.028169
 **** Fit       0.026393
 **** Fit       0.024420
 **** Fit       0.022363
 **** Fit       0.020325
 **** Fit       0.018387
 **** Fit       0.023537
 **** Fit       0.025446
 **** Fit       0.026916
 **** Fit       0.027839
 **** Fit       0.028181
 **** Fit       0.027976
 **** Fit       0.027294
 **** Fit       0.026215
 **** Fit       0.024819
 **** Fit       0.023196
 **** Fit       0.021443
 **** Fit       0.019658
 **** Fit       0.025452
 **** Fit       0.025392
 **** Fit       0.024945
 **** Fit       0.024152
 **** Fit       0.023066
 **** Fit       0.021753
 **** Fit       0.020292
 **** Fit       0.018768
 **** Fit       0.023008
 **** Fit       0.022712
 **** Fit       0.022125
 **** Fit       0.021280
 **** Fit       0.020227
 **** Fit       0.019027
 **** Fit      -0.016997
 **** Fit      -0.016907
 **** Fit      -0.016197
 **** Fit      -0.014877
 **** Fit      -0.013059
 **** Fit      -0.015539
 **** Fit      -0.016514
 **** Fit      -0.017042
 **** Fit      -0.016957
 **** Fit      -0.016153
 **** Fit      -0.014640
 **** Fit      -0.012554
 **** Fit      -0.010133
 **** Fit      -0.014760
 **** Fit      -0.015755
 **** Fit      -0.016281
 **** Fit      -0.016148
 **** Fit      -0.015232
 **** Fit      -0.013540
 **** Fit      -0.011234
 **** Fit      -0.008594
 **** Fit      -0.005934
 **** Fit      -0.011965
 **** Fit      -0.013086
 **** Fit      -0.013923
 **** Fit      -0.014284
 **** Fit      -0.013986
 **** Fit      -0.012916
 **** Fit      -0.011091
 **** Fit      -0.008686
 **** Fit      -0.005997
 **** Fit      -0.003355
 **** Fit      -0.001018
 **** Fit      -0.009590
 **** Fit      -0.010333
 **** Fit      -0.010758
 **** Fit      -0.010710
 **** Fit      -0.010067
 **** Fit      -0.008776
 **** Fit      -0.006889
 **** Fit      -0.004575
 **** Fit      -0.002101
 **** Fit       0.000243
 **** Fit       0.002236
 **** Fit      -0.006386
 **** Fit      -0.006509
 **** Fit      -0.006254
 **** Fit      -0.005540
 **** Fit      -0.004355
 **** Fit      -0.002768
 **** Fit      -0.000894
 **** Fit       0.001116
 **** Fit       0.003082
 **** Fit       0.004819
 **** Fit       0.006192
 **** Fit       0.007146
 **** Fit      -0.002553
 **** Fit      -0.001884
 **** Fit      -0.000766
 **** Fit       0.000788
 **** Fit       0.002642
 **** Fit       0.004575
 **** Fit       0.006381
 **** Fit       0.007931
 **** Fit       0.009166
 **** Fit       0.010059
 **** Fit       0.010603
 **** Fit       0.010815
 **** Fit       0.001553
 **** Fit       0.003053
 **** Fit       0.005058
 **** Fit       0.007458
 **** Fit       0.009976
 **** Fit       0.012243
 **** Fit       0.013954
 **** Fit       0.014995
 **** Fit       0.015432
 **** Fit       0.015408
 **** Fit       0.015059
 **** Fit       0.014483
 **** Fit       0.013752
 **** Fit       0.003846
 **** Fit       0.005518
 **** Fit       0.007735
 **** Fit       0.010477
 **** Fit       0.013553
 **** Fit       0.016582
 **** Fit       0.019088
 **** Fit       0.020694
 **** Fit       0.021292
 **** Fit       0.021041
 **** Fit       0.020222
 **** Fit       0.019091
 **** Fit       0.017820
 **** Fit       0.016504
 **** Fit       0.008975
 **** Fit       0.011689
 **** Fit       0.014895
 **** Fit       0.018353
 **** Fit       0.021633
 **** Fit       0.024221
 **** Fit       0.025714
 **** Fit       0.026009
 **** Fit       0.025309
 **** Fit       0.023966
 **** Fit       0.022304
 **** Fit       0.020541
 **** Fit       0.018796
 **** Fit       0.011694
 **** Fit       0.014642
 **** Fit       0.018003
 **** Fit       0.021520
 **** Fit       0.024772
 **** Fit       0.027269
 **** Fit       0.028640
 **** Fit       0.028791
 **** Fit       0.027917
 **** Fit       0.026368
 **** Fit       0.024476
 **** Fit       0.022474
 **** Fit       0.013600
 **** Fit       0.016543
 **** Fit       0.019796
 **** Fit       0.023111
 **** Fit       0.026114
 **** Fit       0.028393
 **** Fit       0.029636
 **** Fit       0.029765
 **** Fit       0.028938
 **** Fit       0.027449
 **** Fit       0.025589
 **** Fit       0.023577
 **** Fit       0.021551
 **** Fit       0.017513
 **** Fit       0.020485
 **** Fit       0.023441
 **** Fit       0.026077
 **** Fit       0.028071
 **** Fit       0.029188
 **** Fit       0.029361
 **** Fit       0.028704
 **** Fit       0.027433
 **** Fit       0.025777
 **** Fit       0.023920
 **** Fit       0.021990
 **** Fit       0.020077
 **** Fit       0.017759
 **** Fit       0.020366
 **** Fit       0.022907
 **** Fit       0.025146
 **** Fit       0.026847
 **** Fit       0.027841
 **** Fit       0.028077
 **** Fit       0.027624
 **** Fit       0.026627
 **** Fit       0.025249
 **** Fit       0.023632
 **** Fit       0.021889
 **** Fit       0.020111
 **** Fit       0.021863
 **** Fit       0.023730
 **** Fit       0.025162
 **** Fit       0.026041
 **** Fit       0.026326
 **** Fit       0.026055
 **** Fit       0.025318
 **** Fit       0.024222
 **** Fit       0.022869
 **** Fit       0.021355
 **** Fit       0.024262
 **** Fit       0.023737
 **** Fit       0.022887
 **** Fit       0.021785
 **** Fit       0.020504
 **** Fit      -0.011938
 **** Fit      -0.011800
 **** Fit      -0.011496
 **** Fit      -0.010700
 **** Fit      -0.009432
 **** Fit      -0.007794
 **** Fit      -0.009886
 **** Fit      -0.009869
 **** Fit      -0.009423
 **** Fit      -0.008509
 **** Fit      -0.007156
 **** Fit      -0.005475
 **** Fit      -0.003632
 **** Fit      -0.007207
 **** Fit      -0.007237
 **** Fit      -0.006939
 **** Fit      -0.006262
 **** Fit      -0.005198
 **** Fit      -0.003799
 **** Fit      -0.002175
 **** Fit      -0.000478
 **** Fit      -0.004167
 **** Fit      -0.003762
 **** Fit      -0.003057
 **** Fit      -0.002059
 **** Fit      -0.000817
 **** Fit       0.000587
 **** Fit       0.002048
 **** Fit       0.003450
 **** Fit       0.004688
 **** Fit      -0.000628
 **** Fit       0.000303
 **** Fit       0.001495
 **** Fit       0.002868
 **** Fit       0.004302
 **** Fit       0.005676
 **** Fit       0.006891
 **** Fit       0.007887
 **** Fit       0.008630
 **** Fit       0.009113
 **** Fit       0.003098
 **** Fit       0.004564
 **** Fit       0.006244
 **** Fit       0.007983
 **** Fit       0.009593
 **** Fit       0.010910
 **** Fit       0.011848
 **** Fit       0.012399
 **** Fit       0.012610
 **** Fit       0.012546
 **** Fit       0.006656
 **** Fit       0.008579
 **** Fit       0.010658
 **** Fit       0.012685
 **** Fit       0.014418
 **** Fit       0.015665
 **** Fit       0.016345
 **** Fit       0.016497
 **** Fit       0.016233
 **** Fit       0.015680
 **** Fit       0.014942
 **** Fit       0.009741
 **** Fit       0.011971
 **** Fit       0.014298
 **** Fit       0.016484
 **** Fit       0.018262
 **** Fit       0.019429
 **** Fit       0.019911
 **** Fit       0.019773
 **** Fit       0.019166
 **** Fit       0.018254
 **** Fit       0.012155
 **** Fit       0.014520
 **** Fit       0.016924
 **** Fit       0.019124
 **** Fit       0.020862
 **** Fit       0.021943
 **** Fit       0.022300
 **** Fit       0.022005
 **** Fit       0.021217
 **** Fit       0.020110
 **** Fit       0.013837
 **** Fit       0.016178
 **** Fit       0.018507
 **** Fit       0.020600
 **** Fit       0.022228
 **** Fit       0.023218
 **** Fit       0.023515
 **** Fit       0.023181
 **** Fit       0.022359
 **** Fit       0.021210
 **** Fit       0.017036
 **** Fit       0.019185
 **** Fit       0.021091
 **** Fit       0.022564
 **** Fit       0.023464
 **** Fit       0.023743
 **** Fit       0.023450
 **** Fit       0.022696
 **** Fit       0.019171
 **** Fit       0.020854
 **** Fit       0.022155
 **** Fit       0.022966
 **** Fit       0.023248
 **** Fit       0.023032
 **** Fit      -0.000628
 **** Fit       0.000355
 **** Fit       0.001426
 **** Fit       0.002516
 **** Fit       0.001913
 **** Fit       0.002969
 **** Fit       0.004065
 **** Fit       0.005122
 **** Fit       0.006074
 **** Fit       0.006872
 **** Fit       0.005400
 **** Fit       0.006668
 **** Fit       0.007863
 **** Fit       0.008887
 **** Fit       0.009679
 **** Fit       0.010217
 **** Fit       0.010511
 **** Fit       0.007200
 **** Fit       0.008679
 **** Fit       0.010116
 **** Fit       0.011379
 **** Fit       0.012357
 **** Fit       0.012995
 **** Fit       0.013291
 **** Fit       0.013289
 **** Fit       0.009836
 **** Fit       0.011478
 **** Fit       0.013015
 **** Fit       0.014303
 **** Fit       0.015227
 **** Fit       0.015734
 **** Fit       0.015840
 **** Fit       0.015610
 **** Fit       0.013626
 **** Fit       0.015186
 **** Fit       0.016454
 **** Fit       0.017316
 **** Fit       0.017728
 **** Fit       0.017711
 **** Fit       0.016588
 **** Fit       0.017794
 **** Fit       0.018592
 **** Fit       0.018942
 **** Fit       0.018866
 -----------------------------------------------------------------
 Leave Link  602 at Thu Apr 21 11:48:36 2022, MaxMem=   104857600 cpu:               3.5 elap:               3.5
 (Enter /opt/ohpc/pub/libs/gaussian/g16-A.03/haswell/g16/l9999.exe)

 Test job not archived.
 1\1\GINC-CASCADEB028\SP\RB3LYP\6-311++G(d,p)\C12H15N1O2\MNG228\21-Apr-
 2022\0\\#P B3LYP/6-311++G(d,p) Geom=Allcheck SCF=Tight EmpiricalDisper
 sion=GD3BJ Pop=CHELPG SP IOp(6/33=2)\\MAA1-AS1 geo opt\\0,1\C,0,12.918
 5554301,13.7083406265,12.4121903733\C,0,11.7029982228,12.8174364345,12
 .4714903152\C,0,10.554090204,13.1923155689,13.0379926579\C,0,11.758568
 2451,11.4549015112,11.8478593817\O,0,10.7976268484,10.7550077127,11.63
 86085884\O,0,12.9865588893,11.0019466404,11.4908521858\H,0,13.24226600
 66,13.8842643353,11.3808215915\H,0,13.7678748629,13.2878828666,12.9656
 928382\H,0,12.700849248,14.6785105603,12.8589032784\H,0,10.4406590127,
 14.1715346691,13.4870875805\H,0,9.7001923457,12.5303695709,13.05749878
 32\H,0,13.6726922852,11.6337164411,11.73676377\C,0,6.2552380403,17.569
 0258832,10.8057809075\C,0,7.1710250046,16.6999609549,10.3616193366\C,0
 ,7.2930325211,15.2769073638,10.6863374043\C,0,6.3980239174,14.59502295
 24,11.5274717057\C,0,6.5563719263,13.2503592233,11.8164889464\C,0,7.62
 61700358,12.5148186652,11.2738097822\C,0,8.5188206621,13.18261472,10.4
 206623266\C,0,8.3493175888,14.5308132902,10.1423186661\N,0,7.784530073
 8,11.1658591799,11.5430910947\H,0,6.2708748508,18.6038492093,10.487036
 6503\H,0,5.4649519109,17.2861936617,11.4921679398\H,0,7.9293387667,17.
 0700806201,9.674207747\H,0,5.5615087865,15.1258406599,11.9666554784\H,
 0,5.84838512,12.752861407,12.4718615147\H,0,9.3424873489,12.6313886571
 ,9.9830223065\H,0,9.0548383926,15.0242917961,9.4811843272\H,0,8.728973
 7636,10.8043971633,11.4810038713\H,0,7.2581796892,10.7984876548,12.320
 5186505\\Version=ES64L-G16RevA.03\State=1-A\HF=-671.7386858\RMSD=7.350
 e-09\Dipole=1.3795528,0.7185024,1.087447\Quadrupole=9.9160604,-9.37850
 51,-0.5375554,6.0816532,-2.2106593,-3.1382499\PG=C01 [X(C12H15N1O2)]\\
 @


 We're simply so accustomed to the marvels of everyday thought
 that we never wonder about it.
 -- Marvin Minsky in "Why people think computers are smart"
 Job cpu time:       0 days  0 hours 10 minutes 14.9 seconds.
 Elapsed time:       0 days  0 hours 10 minutes 17.1 seconds.
 File lengths (MBytes):  RWF=    336 Int=      0 D2E=      0 Chk=     32 Scr=     32
 Normal termination of Gaussian 16 at Thu Apr 21 11:48:36 2022.
