 Entering Gaussian System, Link 0=g16
 Initial command:
 /opt/ohpc/pub/libs/gaussian/g16-A.03/haswell/g16/l1.exe "g16_scratch/Gau-295152.inp" -scrdir="g16_scratch/"
 Entering Link 1 = /opt/ohpc/pub/libs/gaussian/g16-A.03/haswell/g16/l1.exe PID=    295154.
  
 Copyright (c) 1988,1990,1992,1993,1995,1998,2003,2009,2016,
            Gaussian, Inc.  All Rights Reserved.
  
 This is part of the Gaussian(R) 16 program.  It is based on
 the Gaussian(R) 09 system (copyright 2009, Gaussian, Inc.),
 the Gaussian(R) 03 system (copyright 2003, Gaussian, Inc.),
 the Gaussian(R) 98 system (copyright 1998, Gaussian, Inc.),
 the Gaussian(R) 94 system (copyright 1995, Gaussian, Inc.),
 the Gaussian 92(TM) system (copyright 1992, Gaussian, Inc.),
 the Gaussian 90(TM) system (copyright 1990, Gaussian, Inc.),
 the Gaussian 88(TM) system (copyright 1988, Gaussian, Inc.),
 the Gaussian 86(TM) system (copyright 1986, Carnegie Mellon
 University), and the Gaussian 82(TM) system (copyright 1983,
 Carnegie Mellon University). Gaussian is a federally registered
 trademark of Gaussian, Inc.
  
 This software contains proprietary and confidential information,
 including trade secrets, belonging to Gaussian, Inc.
  
 This software is provided under written license and may be
 used, copied, transmitted, or stored only in accord with that
 written license.
  
 The following legend is applicable only to US Government
 contracts under FAR:
  
                    RESTRICTED RIGHTS LEGEND
  
 Use, reproduction and disclosure by the US Government is
 subject to restrictions as set forth in subparagraphs (a)
 and (c) of the Commercial Computer Software - Restricted
 Rights clause in FAR 52.227-19.
  
 Gaussian, Inc.
 340 Quinnipiac St., Bldg. 40, Wallingford CT 06492
  
  
 ---------------------------------------------------------------
 Warning -- This program may not be used in any manner that
 competes with the business of Gaussian, Inc. or will provide
 assistance to any competitor of Gaussian, Inc.  The licensee
 of this program is prohibited from giving any competitor of
 Gaussian, Inc. access to this program.  By using this program,
 the user acknowledges that Gaussian, Inc. is engaged in the
 business of creating and licensing software in the field of
 computational chemistry and represents and warrants to the
 licensee that it is not a competitor of Gaussian, Inc. and that
 it will not use this program in any manner prohibited above.
 ---------------------------------------------------------------
  

 Cite this work as:
 Gaussian 16, Revision A.03,
 M. J. Frisch, G. W. Trucks, H. B. Schlegel, G. E. Scuseria, 
 M. A. Robb, J. R. Cheeseman, G. Scalmani, V. Barone, 
 G. A. Petersson, H. Nakatsuji, X. Li, M. Caricato, A. V. Marenich, 
 J. Bloino, B. G. Janesko, R. Gomperts, B. Mennucci, H. P. Hratchian, 
 J. V. Ortiz, A. F. Izmaylov, J. L. Sonnenberg, D. Williams-Young, 
 F. Ding, F. Lipparini, F. Egidi, J. Goings, B. Peng, A. Petrone, 
 T. Henderson, D. Ranasinghe, V. G. Zakrzewski, J. Gao, N. Rega, 
 G. Zheng, W. Liang, M. Hada, M. Ehara, K. Toyota, R. Fukuda, 
 J. Hasegawa, M. Ishida, T. Nakajima, Y. Honda, O. Kitao, H. Nakai, 
 T. Vreven, K. Throssell, J. A. Montgomery, Jr., J. E. Peralta, 
 F. Ogliaro, M. J. Bearpark, J. J. Heyd, E. N. Brothers, K. N. Kudin, 
 V. N. Staroverov, T. A. Keith, R. Kobayashi, J. Normand, 
 K. Raghavachari, A. P. Rendell, J. C. Burant, S. S. Iyengar, 
 J. Tomasi, M. Cossi, J. M. Millam, M. Klene, C. Adamo, R. Cammi, 
 J. W. Ochterski, R. L. Martin, K. Morokuma, O. Farkas, 
 J. B. Foresman, and D. J. Fox, Gaussian, Inc., Wallingford CT, 2016.
 
 ******************************************
 Gaussian 16:  ES64L-G16RevA.03 25-Dec-2016
                21-Apr-2022 
 ******************************************
 %Mem=192GB
 %NProcShared=48
 Will use up to   48 processors via shared memory.
 %Chk=MAA1-AS1-5.chk
 ---------------------------------------------------------------------
 #n B3LYP/6-311++G(d,p) Opt freq EmpiricalDispersion=GD3BJ IOp(6/33=2)
 ---------------------------------------------------------------------
 1/18=20,19=15,26=3,38=1/1,3;
 2/9=110,12=2,17=6,18=5,40=1/2;
 3/5=4,6=6,7=1111,11=2,25=1,30=1,71=1,74=-5,124=41/1,2,3;
 4//1;
 5/5=2,38=5/2;
 6/7=2,8=2,9=2,10=2,28=1,33=2/1;
 7//1,2,3,16;
 1/18=20,19=15,26=3/3(2);
 2/9=110/2;
 99//99;
 2/9=110/2;
 3/5=4,6=6,7=1111,11=2,25=1,30=1,71=1,74=-5,124=41/1,2,3;
 4/5=5,16=3,69=1/1;
 5/5=2,38=5/2;
 7//1,2,3,16;
 1/18=20,19=15,26=3/3(-5);
 2/9=110/2;
 6/7=2,8=2,9=2,10=2,19=2,28=1,33=2/1;
 99/9=1/99;
 ----------------
 MAA1-AS1 geo opt
 ----------------
 Symbolic Z-matrix:
 Charge =  0 Multiplicity = 1
 C                     13.919    14.84     12.146 
 C                     12.476    14.756    12.411 
 C                     11.762    15.757    12.847 
 C                     11.866    13.43     12.146 
 O                     12.146    12.653    11.226 
 O                     11.047    12.942    13.113 
 H                     14.111    15.734    11.554 
 H                     14.284    14.014    11.536 
 H                     14.451    14.996    13.084 
 H                     12.298    16.678    13.023 
 H                     10.699    15.72     13.031 
 H                     10.94     13.48     13.883 
 C                     6.905     18.663    12.777 
 C                     7.198     17.528    13.466 
 C                     7.257     16.158    12.942 
 C                     7.89      15.253    13.822 
 C                     8.096     13.971    13.43 
 C                     7.551     13.487    12.197 
 C                     6.93      14.364    11.286 
 C                     6.84      15.739    11.668 
 N                     7.671     12.18     11.95 
 H                     6.708     19.599    13.28 
 H                     6.67      18.639    11.723 
 H                     7.404     17.617    14.523 
 H                     8.213     15.549    14.809 
 H                     8.435     13.312    14.216 
 H                     6.559     14.069    10.316 
 H                     6.301     16.449    11.058 
 H                     7.401     11.813    11.048 
 H                     8.508     11.726    12.286 
 
 Add virtual bond connecting atoms H26        and H12        Dist= 4.79D+00.

 GradGradGradGradGradGradGradGradGradGradGradGradGradGradGradGradGradGrad
 Berny optimization.
 Initialization pass.
                           ----------------------------
                           !    Initial Parameters    !
                           ! (Angstroms and Degrees)  !
 --------------------------                            --------------------------
 ! Name  Definition              Value          Derivative Info.                !
 --------------------------------------------------------------------------------
 ! R1    R(1,2)                  1.4695         estimate D2E/DX2                !
 ! R2    R(1,7)                  1.0893         estimate D2E/DX2                !
 ! R3    R(1,8)                  1.0898         estimate D2E/DX2                !
 ! R4    R(1,9)                  1.0896         estimate D2E/DX2                !
 ! R5    R(2,3)                  1.3046         estimate D2E/DX2                !
 ! R6    R(2,4)                  1.4834         estimate D2E/DX2                !
 ! R7    R(3,10)                 1.0801         estimate D2E/DX2                !
 ! R8    R(3,11)                 1.0794         estimate D2E/DX2                !
 ! R9    R(4,5)                  1.2363         estimate D2E/DX2                !
 ! R10   R(4,6)                  1.3579         estimate D2E/DX2                !
 ! R11   R(6,12)                 0.9454         estimate D2E/DX2                !
 ! R12   R(12,26)                2.5326         estimate D2E/DX2                !
 ! R13   R(13,14)                1.3597         estimate D2E/DX2                !
 ! R14   R(13,22)                1.0807         estimate D2E/DX2                !
 ! R15   R(13,23)                1.0801         estimate D2E/DX2                !
 ! R16   R(14,15)                1.468          estimate D2E/DX2                !
 ! R17   R(14,24)                1.0806         estimate D2E/DX2                !
 ! R18   R(15,16)                1.4121         estimate D2E/DX2                !
 ! R19   R(15,20)                1.4045         estimate D2E/DX2                !
 ! R20   R(16,17)                1.3563         estimate D2E/DX2                !
 ! R21   R(16,25)                1.0799         estimate D2E/DX2                !
 ! R22   R(17,18)                1.4323         estimate D2E/DX2                !
 ! R23   R(17,26)                1.0803         estimate D2E/DX2                !
 ! R24   R(18,19)                1.4088         estimate D2E/DX2                !
 ! R25   R(18,21)                1.3355         estimate D2E/DX2                !
 ! R26   R(19,20)                1.4299         estimate D2E/DX2                !
 ! R27   R(19,27)                1.0796         estimate D2E/DX2                !
 ! R28   R(20,28)                1.0801         estimate D2E/DX2                !
 ! R29   R(21,29)                1.0105         estimate D2E/DX2                !
 ! R30   R(21,30)                1.0097         estimate D2E/DX2                !
 ! A1    A(2,1,7)              108.5417         estimate D2E/DX2                !
 ! A2    A(2,1,8)              112.7368         estimate D2E/DX2                !
 ! A3    A(2,1,9)              109.4136         estimate D2E/DX2                !
 ! A4    A(7,1,8)              105.0002         estimate D2E/DX2                !
 ! A5    A(7,1,9)              105.3251         estimate D2E/DX2                !
 ! A6    A(8,1,9)              115.2685         estimate D2E/DX2                !
 ! A7    A(1,2,3)              123.6305         estimate D2E/DX2                !
 ! A8    A(1,2,4)              115.0027         estimate D2E/DX2                !
 ! A9    A(3,2,4)              121.3668         estimate D2E/DX2                !
 ! A10   A(2,3,10)             115.9226         estimate D2E/DX2                !
 ! A11   A(2,3,11)             124.7251         estimate D2E/DX2                !
 ! A12   A(10,3,11)            119.3515         estimate D2E/DX2                !
 ! A13   A(2,4,5)              126.9825         estimate D2E/DX2                !
 ! A14   A(2,4,6)              116.2331         estimate D2E/DX2                !
 ! A15   A(5,4,6)              116.145          estimate D2E/DX2                !
 ! A16   A(4,6,12)             116.343          estimate D2E/DX2                !
 ! A17   A(6,12,26)            100.4446         estimate D2E/DX2                !
 ! A18   A(14,13,22)           121.7627         estimate D2E/DX2                !
 ! A19   A(14,13,23)           121.52           estimate D2E/DX2                !
 ! A20   A(22,13,23)           115.7062         estimate D2E/DX2                !
 ! A21   A(13,14,15)           127.3592         estimate D2E/DX2                !
 ! A22   A(13,14,24)           117.9051         estimate D2E/DX2                !
 ! A23   A(15,14,24)           114.7322         estimate D2E/DX2                !
 ! A24   A(14,15,16)           113.1833         estimate D2E/DX2                !
 ! A25   A(14,15,20)           126.1772         estimate D2E/DX2                !
 ! A26   A(16,15,20)           120.4762         estimate D2E/DX2                !
 ! A27   A(15,16,17)           119.5861         estimate D2E/DX2                !
 ! A28   A(15,16,25)           121.8697         estimate D2E/DX2                !
 ! A29   A(17,16,25)           118.543          estimate D2E/DX2                !
 ! A30   A(16,17,18)           120.6903         estimate D2E/DX2                !
 ! A31   A(16,17,26)           114.4548         estimate D2E/DX2                !
 ! A32   A(18,17,26)           122.6567         estimate D2E/DX2                !
 ! A33   A(17,18,19)           120.9327         estimate D2E/DX2                !
 ! A34   A(17,18,21)           117.1106         estimate D2E/DX2                !
 ! A35   A(19,18,21)           121.9535         estimate D2E/DX2                !
 ! A36   A(18,19,20)           116.9752         estimate D2E/DX2                !
 ! A37   A(18,19,27)           124.2203         estimate D2E/DX2                !
 ! A38   A(20,19,27)           118.7605         estimate D2E/DX2                !
 ! A39   A(15,20,19)           120.6986         estimate D2E/DX2                !
 ! A40   A(15,20,28)           117.6673         estimate D2E/DX2                !
 ! A41   A(19,20,28)           120.838          estimate D2E/DX2                !
 ! A42   A(18,21,29)           119.7677         estimate D2E/DX2                !
 ! A43   A(18,21,30)           116.9332         estimate D2E/DX2                !
 ! A44   A(29,21,30)           110.8059         estimate D2E/DX2                !
 ! A45   A(12,26,17)           100.0352         estimate D2E/DX2                !
 ! D1    D(7,1,2,3)            -48.0454         estimate D2E/DX2                !
 ! D2    D(7,1,2,4)            131.9689         estimate D2E/DX2                !
 ! D3    D(8,1,2,3)           -163.9294         estimate D2E/DX2                !
 ! D4    D(8,1,2,4)             16.0848         estimate D2E/DX2                !
 ! D5    D(9,1,2,3)             66.3968         estimate D2E/DX2                !
 ! D6    D(9,1,2,4)           -113.589          estimate D2E/DX2                !
 ! D7    D(1,2,3,10)            -0.7911         estimate D2E/DX2                !
 ! D8    D(1,2,3,11)           178.8745         estimate D2E/DX2                !
 ! D9    D(4,2,3,10)           179.1938         estimate D2E/DX2                !
 ! D10   D(4,2,3,11)            -1.1407         estimate D2E/DX2                !
 ! D11   D(1,2,4,5)            -37.4276         estimate D2E/DX2                !
 ! D12   D(1,2,4,6)            132.9937         estimate D2E/DX2                !
 ! D13   D(3,2,4,5)            142.5863         estimate D2E/DX2                !
 ! D14   D(3,2,4,6)            -46.9924         estimate D2E/DX2                !
 ! D15   D(2,4,6,12)            -0.8178         estimate D2E/DX2                !
 ! D16   D(5,4,6,12)           170.6668         estimate D2E/DX2                !
 ! D17   D(4,6,12,26)          135.9637         estimate D2E/DX2                !
 ! D18   D(6,12,26,17)         -75.5575         estimate D2E/DX2                !
 ! D19   D(22,13,14,15)        168.5419         estimate D2E/DX2                !
 ! D20   D(22,13,14,24)        -10.7296         estimate D2E/DX2                !
 ! D21   D(23,13,14,15)          0.539          estimate D2E/DX2                !
 ! D22   D(23,13,14,24)       -178.7326         estimate D2E/DX2                !
 ! D23   D(13,14,15,16)        165.8365         estimate D2E/DX2                !
 ! D24   D(13,14,15,20)         -9.5016         estimate D2E/DX2                !
 ! D25   D(24,14,15,16)        -14.8722         estimate D2E/DX2                !
 ! D26   D(24,14,15,20)        169.7897         estimate D2E/DX2                !
 ! D27   D(14,15,16,17)       -175.5787         estimate D2E/DX2                !
 ! D28   D(14,15,16,25)          4.8287         estimate D2E/DX2                !
 ! D29   D(20,15,16,17)          0.0556         estimate D2E/DX2                !
 ! D30   D(20,15,16,25)       -179.5371         estimate D2E/DX2                !
 ! D31   D(14,15,20,19)       -178.9135         estimate D2E/DX2                !
 ! D32   D(14,15,20,28)         -9.047          estimate D2E/DX2                !
 ! D33   D(16,15,20,19)          6.0598         estimate D2E/DX2                !
 ! D34   D(16,15,20,28)        175.9262         estimate D2E/DX2                !
 ! D35   D(15,16,17,18)         -6.8675         estimate D2E/DX2                !
 ! D36   D(15,16,17,26)       -170.4554         estimate D2E/DX2                !
 ! D37   D(25,16,17,18)        172.7386         estimate D2E/DX2                !
 ! D38   D(25,16,17,26)          9.1508         estimate D2E/DX2                !
 ! D39   D(16,17,18,19)          7.7907         estimate D2E/DX2                !
 ! D40   D(16,17,18,21)       -172.8533         estimate D2E/DX2                !
 ! D41   D(26,17,18,19)        170.0031         estimate D2E/DX2                !
 ! D42   D(26,17,18,21)        -10.6409         estimate D2E/DX2                !
 ! D43   D(16,17,26,12)        -93.4147         estimate D2E/DX2                !
 ! D44   D(18,17,26,12)        103.359          estimate D2E/DX2                !
 ! D45   D(17,18,19,20)         -1.6693         estimate D2E/DX2                !
 ! D46   D(17,18,19,27)        175.8805         estimate D2E/DX2                !
 ! D47   D(21,18,19,20)        179.0063         estimate D2E/DX2                !
 ! D48   D(21,18,19,27)         -3.4439         estimate D2E/DX2                !
 ! D49   D(17,18,21,29)       -172.7555         estimate D2E/DX2                !
 ! D50   D(17,18,21,30)        -34.2025         estimate D2E/DX2                !
 ! D51   D(19,18,21,29)          6.5935         estimate D2E/DX2                !
 ! D52   D(19,18,21,30)        145.1465         estimate D2E/DX2                !
 ! D53   D(18,19,20,15)         -5.067          estimate D2E/DX2                !
 ! D54   D(18,19,20,28)       -174.6107         estimate D2E/DX2                !
 ! D55   D(27,19,20,15)        177.244          estimate D2E/DX2                !
 ! D56   D(27,19,20,28)          7.7003         estimate D2E/DX2                !
 --------------------------------------------------------------------------------
 Trust Radius=3.00D-01 FncErr=1.00D-07 GrdErr=1.00D-06 EigMax=2.50D+02 EigMin=1.00D-04
 Number of steps in this run=    141 maximum allowed number of steps=    180.
 GradGradGradGradGradGradGradGradGradGradGradGradGradGradGradGradGradGrad

                          Input orientation:                          
 ---------------------------------------------------------------------
 Center     Atomic      Atomic             Coordinates (Angstroms)
 Number     Number       Type             X           Y           Z
 ---------------------------------------------------------------------
      1          6           0       13.919000   14.840000   12.146000
      2          6           0       12.476000   14.756000   12.411000
      3          6           0       11.762000   15.757000   12.847000
      4          6           0       11.866000   13.430000   12.146000
      5          8           0       12.146000   12.653000   11.226000
      6          8           0       11.047000   12.942000   13.113000
      7          1           0       14.111000   15.734000   11.554000
      8          1           0       14.284000   14.014000   11.536000
      9          1           0       14.451000   14.996000   13.084000
     10          1           0       12.298000   16.678000   13.023000
     11          1           0       10.699000   15.720000   13.031000
     12          1           0       10.940000   13.480000   13.883000
     13          6           0        6.905000   18.663000   12.777000
     14          6           0        7.198000   17.528000   13.466000
     15          6           0        7.257000   16.158000   12.942000
     16          6           0        7.890000   15.253000   13.822000
     17          6           0        8.096000   13.971000   13.430000
     18          6           0        7.551000   13.487000   12.197000
     19          6           0        6.930000   14.364000   11.286000
     20          6           0        6.840000   15.739000   11.668000
     21          7           0        7.671000   12.180000   11.950000
     22          1           0        6.708000   19.599000   13.280000
     23          1           0        6.670000   18.639000   11.723000
     24          1           0        7.404000   17.617000   14.523000
     25          1           0        8.213000   15.549000   14.809000
     26          1           0        8.435000   13.312000   14.216000
     27          1           0        6.559000   14.069000   10.316000
     28          1           0        6.301000   16.449000   11.058000
     29          1           0        7.401000   11.813000   11.048000
     30          1           0        8.508000   11.726000   12.286000
 ---------------------------------------------------------------------
                    Distance matrix (angstroms):
                    1          2          3          4          5
     1  C    0.000000
     2  C    1.469534   0.000000
     3  C    2.446413   1.304566   0.000000
     4  C    2.490564   1.483442   2.432518   0.000000
     5  O    2.961908   2.436336   3.522771   1.236337   0.000000
     6  O    3.575734   2.413595   2.916540   1.357937   2.202746
     7  H    1.089295   2.089057   2.681451   3.270918   3.668974
     8  H    1.089771   2.141274   3.334255   2.561226   2.553324
     9  H    1.089589   2.100275   2.804641   3.164558   3.775558
    10  H    2.602886   2.024923   1.080052   3.391940   4.410548
    11  H    3.453408   2.114574   1.079442   2.718311   3.841656
    12  H    3.706914   2.480777   2.633194   1.969047   3.032823
    13  C    8.013095   6.814297   5.660405   7.238368   8.123656
    14  C    7.357961   6.054279   4.934541   6.350294   7.298351
    15  C    6.837615   5.430058   4.523809   5.414654   6.255558
    16  C    6.271235   4.823829   4.024553   4.684109   5.622522
    17  C    6.025873   4.564974   4.119374   4.019233   4.795544
    18  C    6.510348   5.090362   4.827828   4.315678   4.769950
    19  C    7.057783   5.672513   5.265491   5.096671   5.489788
    20  C    7.151848   5.769128   5.061270   5.551634   6.154055
    21  N    6.793491   5.471410   5.507796   4.381660   4.557799
    22  H    8.713929   7.581532   6.363283   8.120805   9.057465
    23  H    8.195080   7.018595   5.958000   7.369601   8.128086
    24  H    7.470414   6.194437   5.026006   6.564339   7.615646
    25  H    6.336615   4.955040   4.060555   4.992608   6.057491
    26  H    6.057552   4.655410   4.349841   4.008813   4.811019
    27  H    7.623184   6.314419   6.027148   5.649909   5.835043
    28  H    7.861714   6.544271   5.788083   6.423965   6.971504
    29  H    7.269983   6.022843   6.148972   4.874066   4.822065
    30  H    6.244639   4.994151   5.210777   3.768206   3.901022
                    6          7          8          9         10
     6  O    0.000000
     7  H    4.428752   0.000000
     8  H    3.756898   1.728772   0.000000
     9  H    3.975798   1.732381   1.840792   0.000000
    10  H    3.940913   2.517154   3.640366   2.732811   0.000000
    11  H    2.800913   3.717993   4.242368   3.821582   1.864036
    12  H    0.945406   4.534313   4.120182   3.906889   3.579241
    13  C    7.070990   7.874084   8.809252   8.395431   5.751973
    14  C    5.997567   7.393494   8.141529   7.691746   5.189292
    15  C    4.973530   7.005971   7.480127   7.288624   5.068396
    16  C    3.976185   6.638978   6.902474   6.607376   4.701009
    17  C    3.141294   6.542765   6.471509   6.446423   5.015008
    18  C    3.654873   6.963911   6.785863   7.118557   5.779167
    19  C    4.723315   7.315428   7.366567   7.758716   6.098130
    20  C    5.254530   7.271895   7.642394   7.777173   5.701536
    21  N    3.651108   7.366229   6.875080   7.428608   6.541595
    22  H    7.947985   8.527703   9.572332   9.009999   6.312400
    23  H    7.317516   7.989748   8.910589   8.698720   6.099992
    24  H    6.092222   7.572615   8.320948   7.655101   5.204129
    25  H    4.207662   6.739114   7.065819   6.495697   4.599094
    26  H    2.859380   6.720811   6.471940   6.348979   5.260796
    27  H    5.406985   7.831831   7.820937   8.414560   6.860820
    28  H    6.248727   7.858329   8.359785   8.522816   6.314877
    29  H    4.339606   7.788092   7.242806   7.998705   7.179795
    30  H    2.934128   6.927734   6.257765   6.830004   6.279297
                   11         12         13         14         15
    11  H    0.000000
    12  H    2.408648   0.000000
    13  C    4.808347   6.660927   0.000000
    14  C    3.964226   5.528359   1.359704   0.000000
    15  C    3.470897   4.649909   2.534986   1.467977   0.000000
    16  C    2.955377   3.528420   3.700047   2.404418   1.412131
    17  C    3.161299   2.921408   4.884645   3.668780   2.392704
    18  C    3.948639   3.785230   5.248304   4.250253   2.788495
    19  C    4.369110   4.858597   4.550286   3.851639   2.463270
    20  C    4.092678   5.178736   3.127920   2.561540   1.404466
    21  N    4.782149   4.014081   6.580272   5.578807   4.120673
    22  H    5.571061   7.464288   1.080701   2.136290   3.500875
    23  H    5.144343   7.036603   1.080147   2.133343   2.825932
    24  H    4.084323   5.479750   2.095622   1.080558   2.156351
    25  H    3.061163   3.546092   3.941685   2.598137   2.184149
    26  H    3.511180   2.532615   5.748463   4.457278   3.333238
    27  H    5.218872   5.680103   5.223129   4.721811   3.427390
    28  H    4.875097   6.189984   2.867329   2.786990   2.132621
    29  H    5.483953   4.831215   7.082228   6.208797   4.742046
    30  H    4.616009   3.397286   7.136712   6.063968   4.651662
                   16         17         18         19         20
    16  C    0.000000
    17  C    1.356327   0.000000
    18  C    2.423696   1.432330   0.000000
    19  C    2.853632   2.471991   1.408791   0.000000
    20  C    2.445079   2.794281   2.420096   1.429912   0.000000
    21  N    3.604951   2.361928   1.335537   2.399965   3.665592
    22  H    4.536365   5.798571   6.264190   5.606295   4.185160
    23  H    4.166437   5.170836   5.248232   4.305136   2.905499
    24  H    2.513184   3.868699   4.742234   4.613551   3.463525
    25  H    1.079868   2.098908   3.393027   3.932155   3.433236
    26  H    2.054201   1.080277   2.210982   3.457836   3.863503
    27  H    3.932614   3.474042   2.204756   1.079614   2.166971
    28  H    3.405148   3.871549   3.410757   2.189715   1.080149
    29  H    4.446099   3.288451   2.035922   2.605012   4.014050
    30  H    3.896274   2.553136   2.006213   3.232511   4.389569
                   21         22         23         24         25
    21  N    0.000000
    22  H    7.598541   0.000000
    23  H    6.540047   1.829561   0.000000
    24  H    6.021012   2.440858   3.069730   0.000000
    25  H    4.451719   4.583161   4.631668   2.238951   0.000000
    26  H    2.645728   6.586729   6.140619   4.437368   2.324888
    27  H    2.734012   6.276018   4.782977   5.567870   5.011304
    28  H    4.571315   3.876265   2.318294   3.819301   4.305316
    29  H    1.010541   8.129199   6.898135   6.764765   5.363037
    30  H    1.009743   8.137086   7.175290   6.397411   4.589976
                   26         27         28         29         30
    26  H    0.000000
    27  H    4.393453   0.000000
    28  H    4.936364   2.506298   0.000000
    29  H    3.654091   2.516808   4.764724   0.000000
    30  H    2.499125   3.628932   5.355890   1.663028   0.000000
 Stoichiometry    C12H15NO2
 Framework group  C1[X(C12H15NO2)]
 Deg. of freedom    84
 Full point group                 C1      NOp   1
 Largest Abelian subgroup         C1      NOp   1
 Largest concise Abelian subgroup C1      NOp   1
                         Standard orientation:                         
 ---------------------------------------------------------------------
 Center     Atomic      Atomic             Coordinates (Angstroms)
 Number     Number       Type             X           Y           Z
 ---------------------------------------------------------------------
      1          6           0       -4.124965   -1.828495   -0.403088
      2          6           0       -2.817864   -1.222973   -0.112636
      3          6           0       -1.735071   -1.914885    0.112550
      4          6           0       -2.805016    0.260246   -0.090350
      5          8           0       -3.438349    1.020723   -0.831358
      6          8           0       -2.176149    0.839276    0.964754
      7          1           0       -3.990993   -2.590566   -1.169810
      8          1           0       -4.832159   -1.118613   -0.831509
      9          1           0       -4.479363   -2.364493    0.476862
     10          1           0       -1.847375   -2.988805    0.088113
     11          1           0       -0.763169   -1.488896    0.310373
     12          1           0       -1.807110    0.251889    1.607077
     13          6           0        3.855549   -2.541842   -0.513609
     14          6           0        3.189583   -1.778612    0.393455
     15          6           0        2.553326   -0.475532    0.165164
     16          6           0        1.681747   -0.092138    1.207984
     17          6           0        0.955778    1.047363    1.089105
     18          6           0        1.169906    1.939171   -0.011076
     19          6           0        2.017077    1.581993   -1.078511
     20          6           0        2.672994    0.314491   -0.989855
     21          7           0        0.523642    3.107572    0.017889
     22          1           0        4.444544   -3.397075   -0.214318
     23          1           0        3.981744   -2.221136   -1.537298
     24          1           0        3.115906   -2.146337    1.406843
     25          1           0        1.577756   -0.678578    2.108754
     26          1           0        0.443623    1.347535    1.991652
     27          1           0        2.166666    2.183594   -1.962403
     28          1           0        3.401617    0.015202   -1.728946
     29          1           0        0.557400    3.719648   -0.785490
     30          1           0       -0.396861    3.110924    0.432913
 ---------------------------------------------------------------------
 Rotational constants (GHZ):           0.7574938           0.3319579           0.2583487
 Standard basis: 6-311++G(d,p) (5D, 7F)
 There are   450 symmetry adapted cartesian basis functions of A   symmetry.
 There are   435 symmetry adapted basis functions of A   symmetry.
   435 basis functions,   675 primitive gaussians,   450 cartesian basis functions
    55 alpha electrons       55 beta electrons
       nuclear repulsion energy       919.4147223864 Hartrees.
 NAtoms=   30 NActive=   30 NUniq=   30 SFac= 1.00D+00 NAtFMM=   60 NAOKFM=F Big=F
 Integral buffers will be    131072 words long.
 Raffenetti 2 integral format.
 Two-electron integral symmetry is turned on.
 Nuclear repulsion after empirical dispersion term =      919.3619613012 Hartrees.
 One-electron integrals computed using PRISM.
 NBasis=   435 RedAO= T EigKep=  1.59D-06  NBF=   435
 NBsUse=   434 1.00D-06 EigRej=  6.39D-07 NBFU=   434
 ExpMin= 3.60D-02 ExpMax= 8.59D+03 ExpMxC= 1.30D+03 IAcc=3 IRadAn=         5 AccDes= 0.00D+00
 Harris functional with IExCor=  402 and IRadAn=       5 diagonalized for initial guess.
 HarFok:  IExCor=  402 AccDes= 0.00D+00 IRadAn=         5 IDoV= 1 UseB2=F ITyADJ=14
 ICtDFT=  3500011 ScaDFX=  1.000000  1.000000  1.000000  1.000000
 FoFCou: FMM=F IPFlag=           0 FMFlag=      100000 FMFlg1=           0
         NFxFlg=           0 DoJE=T BraDBF=F KetDBF=T FulRan=T
         wScrn=  0.000000 ICntrl=       500 IOpCl=  0 I1Cent=   200000004 NGrid=           0
         NMat0=    1 NMatS0=      1 NMatT0=    0 NMatD0=    1 NMtDS0=    0 NMtDT0=    0
 Petite list used in FoFCou.
 Requested convergence on RMS density matrix=1.00D-08 within 128 cycles.
 Requested convergence on MAX density matrix=1.00D-06.
 Requested convergence on             energy=1.00D-06.
 No special actions if energy rises.
 SCF Done:  E(RB3LYP) =  -671.706534740     A.U. after   15 cycles
            NFock= 15  Conv=0.77D-08     -V/T= 2.0040
 SCF density gives NOpUse=  1 NOpAll=  1.

 **********************************************************************

            Population analysis using the SCF density.

 **********************************************************************

 Orbital symmetries:
 BldTbl:  Degeneracy threshold= 1.00D-02
       Occupied  (A) (A) (A) (A) (A) (A) (A) (A) (A) (A) (A) (A)
                 (A) (A) (A) (A) (A) (A) (A) (A) (A) (A) (A) (A)
                 (A) (A) (A) (A) (A) (A) (A) (A) (A) (A) (A) (A)
                 (A) (A) (A) (A) (A) (A) (A) (A) (A) (A) (A) (A)
                 (A) (A) (A) (A) (A) (A) (A)
       Virtual   (A) (A) (A) (A) (A) (A) (A) (A) (A) (A) (A) (A)
                 (A) (A) (A) (A) (A) (A) (A) (A) (A) (A) (A) (A)
                 (A) (A) (A) (A) (A) (A) (A) (A) (A) (A) (A) (A)
                 (A) (A) (A) (A) (A) (A) (A) (A) (A) (A) (A) (A)
                 (A) (A) (A) (A) (A) (A) (A) (A) (A) (A) (A) (A)
                 (A) (A) (A) (A) (A) (A) (A) (A) (A) (A) (A) (A)
                 (A) (A) (A) (A) (A) (A) (A) (A) (A) (A) (A) (A)
                 (A) (A) (A) (A) (A) (A) (A) (A) (A) (A) (A) (A)
                 (A) (A) (A) (A) (A) (A) (A) (A) (A) (A) (A) (A)
                 (A) (A) (A) (A) (A) (A) (A) (A) (A) (A) (A) (A)
                 (A) (A) (A) (A) (A) (A) (A) (A) (A) (A) (A) (A)
                 (A) (A) (A) (A) (A) (A) (A) (A) (A) (A) (A) (A)
                 (A) (A) (A) (A) (A) (A) (A) (A) (A) (A) (A) (A)
                 (A) (A) (A) (A) (A) (A) (A) (A) (A) (A) (A) (A)
                 (A) (A) (A) (A) (A) (A) (A) (A) (A) (A) (A) (A)
                 (A) (A) (A) (A) (A) (A) (A) (A) (A) (A) (A) (A)
                 (A) (A) (A) (A) (A) (A) (A) (A) (A) (A) (A) (A)
                 (A) (A) (A) (A) (A) (A) (A) (A) (A) (A) (A) (A)
                 (A) (A) (A) (A) (A) (A) (A) (A) (A) (A) (A) (A)
                 (A) (A) (A) (A) (A) (A) (A) (A) (A) (A) (A) (A)
                 (A) (A) (A) (A) (A) (A) (A) (A) (A) (A) (A) (A)
                 (A) (A) (A) (A) (A) (A) (A) (A) (A) (A) (A) (A)
                 (A) (A) (A) (A) (A) (A) (A) (A) (A) (A) (A) (A)
                 (A) (A) (A) (A) (A) (A) (A) (A) (A) (A) (A) (A)
                 (A) (A) (A) (A) (A) (A) (A) (A) (A) (A) (A) (A)
                 (A) (A) (A) (A) (A) (A) (A) (A) (A) (A) (A) (A)
                 (A) (A) (A) (A) (A) (A) (A) (A) (A) (A) (A) (A)
                 (A) (A) (A) (A) (A) (A) (A) (A) (A) (A) (A) (A)
                 (A) (A) (A) (A) (A) (A) (A) (A) (A) (A) (A) (A)
                 (A) (A) (A) (A) (A) (A) (A) (A) (A) (A) (A) (A)
                 (A) (A) (A) (A) (A) (A) (A) (A) (A) (A) (A) (A)
                 (A) (A) (A) (A) (A) (A) (A)
 The electronic state is 1-A.
 Alpha  occ. eigenvalues --  -19.17805 -19.11876 -14.32634 -10.31902 -10.22643
 Alpha  occ. eigenvalues --  -10.20951 -10.18974 -10.18429 -10.18021 -10.17920
 Alpha  occ. eigenvalues --  -10.17763 -10.17729 -10.17665 -10.17273 -10.15995
 Alpha  occ. eigenvalues --   -1.11400  -1.02074  -0.94510  -0.85238  -0.84444
 Alpha  occ. eigenvalues --   -0.77740  -0.75846  -0.71814  -0.71126  -0.66807
 Alpha  occ. eigenvalues --   -0.63280  -0.62111  -0.61746  -0.56469  -0.53843
 Alpha  occ. eigenvalues --   -0.52333  -0.52107  -0.48444  -0.48111  -0.46669
 Alpha  occ. eigenvalues --   -0.45354  -0.44518  -0.44369  -0.43792  -0.43334
 Alpha  occ. eigenvalues --   -0.42699  -0.41517  -0.39792  -0.39340  -0.38296
 Alpha  occ. eigenvalues --   -0.37694  -0.35280  -0.35106  -0.33857  -0.32949
 Alpha  occ. eigenvalues --   -0.29640  -0.28584  -0.27108  -0.26389  -0.19858
 Alpha virt. eigenvalues --   -0.06198  -0.04090  -0.02061  -0.01921  -0.00474
 Alpha virt. eigenvalues --   -0.00070   0.00176   0.01095   0.01427   0.02117
 Alpha virt. eigenvalues --    0.02283   0.02781   0.03560   0.04146   0.04598
 Alpha virt. eigenvalues --    0.04980   0.05191   0.05291   0.05915   0.06338
 Alpha virt. eigenvalues --    0.07334   0.07585   0.07955   0.08569   0.08774
 Alpha virt. eigenvalues --    0.09038   0.09708   0.10023   0.10236   0.10949
 Alpha virt. eigenvalues --    0.11005   0.11290   0.11535   0.12039   0.12439
 Alpha virt. eigenvalues --    0.12567   0.13023   0.13295   0.13400   0.13679
 Alpha virt. eigenvalues --    0.13845   0.14337   0.14473   0.14716   0.15230
 Alpha virt. eigenvalues --    0.15582   0.15838   0.16103   0.16123   0.16490
 Alpha virt. eigenvalues --    0.16686   0.17186   0.17968   0.18107   0.18615
 Alpha virt. eigenvalues --    0.18767   0.19141   0.19212   0.19651   0.20177
 Alpha virt. eigenvalues --    0.20948   0.21684   0.22046   0.22453   0.22713
 Alpha virt. eigenvalues --    0.22919   0.23661   0.23933   0.24250   0.24767
 Alpha virt. eigenvalues --    0.25156   0.25354   0.25836   0.26225   0.26389
 Alpha virt. eigenvalues --    0.26813   0.27617   0.28171   0.28596   0.28868
 Alpha virt. eigenvalues --    0.29177   0.29562   0.30372   0.30963   0.31162
 Alpha virt. eigenvalues --    0.31519   0.31919   0.32232   0.32682   0.33330
 Alpha virt. eigenvalues --    0.34003   0.34457   0.34799   0.35151   0.35848
 Alpha virt. eigenvalues --    0.35915   0.36632   0.37710   0.38683   0.38938
 Alpha virt. eigenvalues --    0.39538   0.40229   0.41791   0.42281   0.43704
 Alpha virt. eigenvalues --    0.44565   0.44994   0.47129   0.49090   0.50323
 Alpha virt. eigenvalues --    0.50867   0.52603   0.53675   0.54167   0.55148
 Alpha virt. eigenvalues --    0.55425   0.56159   0.56984   0.57529   0.58294
 Alpha virt. eigenvalues --    0.59503   0.60201   0.60382   0.61029   0.61703
 Alpha virt. eigenvalues --    0.62479   0.62602   0.63378   0.64008   0.64560
 Alpha virt. eigenvalues --    0.65302   0.65940   0.66818   0.66962   0.67327
 Alpha virt. eigenvalues --    0.68146   0.68821   0.70127   0.71211   0.72335
 Alpha virt. eigenvalues --    0.72474   0.72924   0.73519   0.74342   0.75327
 Alpha virt. eigenvalues --    0.76495   0.76884   0.77908   0.78416   0.79319
 Alpha virt. eigenvalues --    0.80174   0.80602   0.82311   0.83087   0.83537
 Alpha virt. eigenvalues --    0.85323   0.85990   0.87304   0.87456   0.88581
 Alpha virt. eigenvalues --    0.89259   0.90144   0.91253   0.92347   0.93175
 Alpha virt. eigenvalues --    0.94163   0.94830   0.96446   0.97583   0.98015
 Alpha virt. eigenvalues --    0.99734   1.00553   1.01402   1.02327   1.04251
 Alpha virt. eigenvalues --    1.04626   1.06722   1.07634   1.09659   1.10768
 Alpha virt. eigenvalues --    1.12841   1.15075   1.16329   1.16732   1.17982
 Alpha virt. eigenvalues --    1.18666   1.19479   1.21315   1.22862   1.24696
 Alpha virt. eigenvalues --    1.26991   1.28696   1.31175   1.32789   1.36660
 Alpha virt. eigenvalues --    1.39818   1.43003   1.43857   1.44075   1.45259
 Alpha virt. eigenvalues --    1.45870   1.47062   1.48019   1.49706   1.50242
 Alpha virt. eigenvalues --    1.51150   1.51981   1.52976   1.53439   1.55349
 Alpha virt. eigenvalues --    1.56310   1.56665   1.57718   1.59215   1.60047
 Alpha virt. eigenvalues --    1.60907   1.62432   1.63088   1.63779   1.64576
 Alpha virt. eigenvalues --    1.65139   1.65423   1.68260   1.69773   1.70053
 Alpha virt. eigenvalues --    1.71347   1.72090   1.73345   1.73872   1.76549
 Alpha virt. eigenvalues --    1.79086   1.79382   1.79755   1.81061   1.81736
 Alpha virt. eigenvalues --    1.82300   1.84419   1.87012   1.88116   1.90110
 Alpha virt. eigenvalues --    1.90187   1.90748   1.91366   1.92900   1.94723
 Alpha virt. eigenvalues --    1.95050   1.97112   2.00477   2.01809   2.02339
 Alpha virt. eigenvalues --    2.04094   2.04247   2.06465   2.08972   2.09553
 Alpha virt. eigenvalues --    2.09686   2.10875   2.11879   2.13101   2.13587
 Alpha virt. eigenvalues --    2.16274   2.17758   2.22589   2.25188   2.25490
 Alpha virt. eigenvalues --    2.27240   2.31034   2.31353   2.34620   2.35528
 Alpha virt. eigenvalues --    2.36933   2.40954   2.45748   2.47309   2.48225
 Alpha virt. eigenvalues --    2.50244   2.52016   2.52987   2.56098   2.56144
 Alpha virt. eigenvalues --    2.57103   2.58224   2.58866   2.60160   2.61226
 Alpha virt. eigenvalues --    2.63130   2.64130   2.65309   2.65888   2.66737
 Alpha virt. eigenvalues --    2.68814   2.71055   2.71934   2.73773   2.74189
 Alpha virt. eigenvalues --    2.74730   2.76773   2.77683   2.78689   2.79283
 Alpha virt. eigenvalues --    2.81089   2.81781   2.83027   2.83732   2.86347
 Alpha virt. eigenvalues --    2.87394   2.87687   2.89120   2.89648   2.91947
 Alpha virt. eigenvalues --    2.92615   2.94208   2.94962   2.95981   2.98246
 Alpha virt. eigenvalues --    2.99392   3.00765   3.03702   3.04692   3.09611
 Alpha virt. eigenvalues --    3.10629   3.16476   3.17444   3.19508   3.20498
 Alpha virt. eigenvalues --    3.25661   3.25903   3.33148   3.34323   3.35104
 Alpha virt. eigenvalues --    3.36241   3.41381   3.46568   3.50460   3.51075
 Alpha virt. eigenvalues --    3.55465   3.59112   3.60636   3.66818   3.73636
 Alpha virt. eigenvalues --    3.77685   3.77772   3.79407   3.86775   3.88529
 Alpha virt. eigenvalues --    3.93806   4.00361   4.02576   4.06230   4.07064
 Alpha virt. eigenvalues --    4.16690   4.17872   4.23116   4.31477   4.46695
 Alpha virt. eigenvalues --    4.75653   4.79848   5.04808   5.05908   5.08372
 Alpha virt. eigenvalues --    5.17823   5.34767   5.60612   5.88386  23.65322
 Alpha virt. eigenvalues --   23.70877  23.80123  23.84513  23.92595  23.95252
 Alpha virt. eigenvalues --   23.99322  24.03156  24.07592  24.18591  24.21229
 Alpha virt. eigenvalues --   24.35105  35.68655  49.87229  49.98901
          Condensed to atoms (all electrons):
               1          2          3          4          5          6
     1  C    7.108896  -0.301934  -1.087720  -0.293676  -0.015503  -0.018462
     2  C   -0.301934   7.407111  -0.882511  -0.548915  -0.124126  -0.327587
     3  C   -1.087720  -0.882511   7.715146  -0.154389   0.022558   0.205941
     4  C   -0.293676  -0.548915  -0.154389   7.062509   0.443497   0.066766
     5  O   -0.015503  -0.124126   0.022558   0.443497   8.017191  -0.115119
     6  O   -0.018462  -0.327587   0.205941   0.066766  -0.115119   8.072660
     7  H    0.408599  -0.099900   0.078914  -0.041352  -0.000090  -0.003749
     8  H    0.355969  -0.057099  -0.008454   0.059134   0.002211   0.010384
     9  H    0.386013  -0.013633  -0.025883   0.001547   0.001895   0.000947
    10  H   -0.047817  -0.048601   0.363669   0.052203   0.001468  -0.006400
    11  H    0.116504   0.000195   0.272192  -0.031378  -0.016059  -0.001746
    12  H    0.020812   0.122855  -0.091280  -0.020912   0.020213   0.180084
    13  C    0.001678   0.008414  -0.002305   0.001118  -0.000010   0.001005
    14  C    0.002423   0.008239  -0.015979  -0.014191   0.000164  -0.002211
    15  C    0.028971   0.091839  -0.078496  -0.030820  -0.002096  -0.012005
    16  C   -0.008067  -0.069687   0.141464  -0.015992   0.001017   0.011531
    17  C   -0.032901  -0.120994   0.081163  -0.037902   0.003361   0.025674
    18  C   -0.001901   0.133321  -0.105930  -0.050694   0.010534  -0.053435
    19  C   -0.017153  -0.046382   0.004636   0.140055  -0.001289   0.004110
    20  C   -0.007096  -0.096129   0.110826   0.013419  -0.002117   0.015798
    21  N    0.008529   0.020544  -0.015346   0.004959  -0.002420   0.010931
    22  H   -0.000026  -0.000039   0.000371   0.000029  -0.000000   0.000007
    23  H    0.000306  -0.000029  -0.000314  -0.000325  -0.000007   0.000086
    24  H    0.000565  -0.001063   0.002246  -0.002395   0.000024  -0.000091
    25  H   -0.002772  -0.008460   0.004027   0.009395   0.000235   0.000424
    26  H   -0.001046   0.009413  -0.007234   0.010723  -0.000610  -0.017171
    27  H    0.000485   0.002470  -0.000878  -0.005903  -0.000052   0.001305
    28  H   -0.001035  -0.002789   0.003595   0.002723   0.000045  -0.000545
    29  H    0.000011   0.001668  -0.001306   0.004612   0.000513  -0.001275
    30  H    0.000595  -0.009394   0.004036  -0.003906  -0.003136   0.003136
               7          8          9         10         11         12
     1  C    0.408599   0.355969   0.386013  -0.047817   0.116504   0.020812
     2  C   -0.099900  -0.057099  -0.013633  -0.048601   0.000195   0.122855
     3  C    0.078914  -0.008454  -0.025883   0.363669   0.272192  -0.091280
     4  C   -0.041352   0.059134   0.001547   0.052203  -0.031378  -0.020912
     5  O   -0.000090   0.002211   0.001895   0.001468  -0.016059   0.020213
     6  O   -0.003749   0.010384   0.000947  -0.006400  -0.001746   0.180084
     7  H    0.566797  -0.025587  -0.050790   0.000302   0.005204   0.000150
     8  H   -0.025587   0.489719  -0.015513   0.002825  -0.004802  -0.000920
     9  H   -0.050790  -0.015513   0.555735   0.001759   0.001771  -0.002981
    10  H    0.000302   0.002825   0.001759   0.521295  -0.025538   0.000883
    11  H    0.005204  -0.004802   0.001771  -0.025538   0.541830  -0.020012
    12  H    0.000150  -0.000920  -0.002981   0.000883  -0.020012   0.547758
    13  C   -0.000004   0.000005   0.000054  -0.001840  -0.004505   0.000127
    14  C    0.000020   0.000084  -0.000213  -0.008370   0.023070  -0.001541
    15  C   -0.000652   0.001214  -0.000455  -0.012464   0.041523  -0.007961
    16  C    0.000673  -0.000078  -0.001765   0.009407  -0.047795   0.014633
    17  C    0.001099  -0.001955   0.001746   0.019438  -0.062803   0.072360
    18  C   -0.000879   0.001037   0.000556  -0.004468   0.018794  -0.019057
    19  C   -0.000082  -0.000605   0.000120  -0.000837   0.031520  -0.025098
    20  C   -0.000160   0.000016  -0.000006   0.007342  -0.054109   0.002706
    21  N    0.000044  -0.000082   0.000066  -0.000926   0.011104  -0.005383
    22  H    0.000007  -0.000003  -0.000002   0.000325  -0.000575  -0.000007
    23  H    0.000002   0.000002   0.000009  -0.000368   0.001011  -0.000019
    24  H   -0.000014   0.000034  -0.000050  -0.000960   0.000461   0.000608
    25  H    0.000020  -0.000172   0.000246   0.002931  -0.006378   0.000279
    26  H    0.000099  -0.000064   0.000068  -0.000838   0.002186  -0.010992
    27  H    0.000025  -0.000024  -0.000001  -0.000001   0.000011   0.000471
    28  H   -0.000024   0.000006  -0.000006   0.000407  -0.003743   0.000057
    29  H   -0.000008   0.000015   0.000001  -0.000108   0.000680  -0.000835
    30  H   -0.000034   0.000212  -0.000011   0.000141  -0.001048   0.001163
              13         14         15         16         17         18
     1  C    0.001678   0.002423   0.028971  -0.008067  -0.032901  -0.001901
     2  C    0.008414   0.008239   0.091839  -0.069687  -0.120994   0.133321
     3  C   -0.002305  -0.015979  -0.078496   0.141464   0.081163  -0.105930
     4  C    0.001118  -0.014191  -0.030820  -0.015992  -0.037902  -0.050694
     5  O   -0.000010   0.000164  -0.002096   0.001017   0.003361   0.010534
     6  O    0.001005  -0.002211  -0.012005   0.011531   0.025674  -0.053435
     7  H   -0.000004   0.000020  -0.000652   0.000673   0.001099  -0.000879
     8  H    0.000005   0.000084   0.001214  -0.000078  -0.001955   0.001037
     9  H    0.000054  -0.000213  -0.000455  -0.001765   0.001746   0.000556
    10  H   -0.001840  -0.008370  -0.012464   0.009407   0.019438  -0.004468
    11  H   -0.004505   0.023070   0.041523  -0.047795  -0.062803   0.018794
    12  H    0.000127  -0.001541  -0.007961   0.014633   0.072360  -0.019057
    13  C    6.630459  -0.692023   0.929956  -0.271941  -0.134895  -0.137121
    14  C   -0.692023  11.339798  -4.168635   0.498677  -0.384880   0.126629
    15  C    0.929956  -4.168635  13.682762   0.181427  -1.799334  -1.226711
    16  C   -0.271941   0.498677   0.181427   7.398067   0.323697  -1.296018
    17  C   -0.134895  -0.384880  -1.799334   0.323697   8.098014   0.748472
    18  C   -0.137121   0.126629  -1.226711  -1.296018   0.748472   9.414331
    19  C    0.005044   0.453727   1.517795   0.960115  -2.543009  -2.235268
    20  C   -0.476803  -1.401768  -3.621731  -2.275783   1.682425   1.467729
    21  N   -0.000635   0.011818   0.001444   0.000697  -0.041487   0.036856
    22  H    0.421726  -0.028142  -0.001769   0.013793   0.002464  -0.002330
    23  H    0.368206   0.054203  -0.057475  -0.014286  -0.007596  -0.003930
    24  H   -0.104573   0.385111  -0.081331   0.010895   0.020237   0.019516
    25  H   -0.007178  -0.015836  -0.159963   0.426834  -0.019839  -0.006593
    26  H    0.008707   0.031622   0.039476  -0.070932   0.416781  -0.064619
    27  H    0.009102  -0.008070   0.120317   0.026758  -0.057828  -0.229727
    28  H   -0.025311   0.085502  -0.312204  -0.020190   0.056083   0.081527
    29  H   -0.000460   0.003221  -0.001359  -0.018491   0.017644   0.018007
    30  H    0.000157  -0.003080  -0.000676   0.014383  -0.032295  -0.031526
              19         20         21         22         23         24
     1  C   -0.017153  -0.007096   0.008529  -0.000026   0.000306   0.000565
     2  C   -0.046382  -0.096129   0.020544  -0.000039  -0.000029  -0.001063
     3  C    0.004636   0.110826  -0.015346   0.000371  -0.000314   0.002246
     4  C    0.140055   0.013419   0.004959   0.000029  -0.000325  -0.002395
     5  O   -0.001289  -0.002117  -0.002420  -0.000000  -0.000007   0.000024
     6  O    0.004110   0.015798   0.010931   0.000007   0.000086  -0.000091
     7  H   -0.000082  -0.000160   0.000044   0.000007   0.000002  -0.000014
     8  H   -0.000605   0.000016  -0.000082  -0.000003   0.000002   0.000034
     9  H    0.000120  -0.000006   0.000066  -0.000002   0.000009  -0.000050
    10  H   -0.000837   0.007342  -0.000926   0.000325  -0.000368  -0.000960
    11  H    0.031520  -0.054109   0.011104  -0.000575   0.001011   0.000461
    12  H   -0.025098   0.002706  -0.005383  -0.000007  -0.000019   0.000608
    13  C    0.005044  -0.476803  -0.000635   0.421726   0.368206  -0.104573
    14  C    0.453727  -1.401768   0.011818  -0.028142   0.054203   0.385111
    15  C    1.517795  -3.621731   0.001444  -0.001769  -0.057475  -0.081331
    16  C    0.960115  -2.275783   0.000697   0.013793  -0.014286   0.010895
    17  C   -2.543009   1.682425  -0.041487   0.002464  -0.007596   0.020237
    18  C   -2.235268   1.467729   0.036856  -0.002330  -0.003930   0.019516
    19  C   11.244436  -3.833784  -0.219355  -0.001427  -0.003079  -0.028572
    20  C   -3.833784  14.736407   0.084914  -0.027186  -0.014096   0.044871
    21  N   -0.219355   0.084914   6.667549   0.000022  -0.000054   0.000348
    22  H   -0.001427  -0.027186   0.000022   0.565756  -0.047020  -0.022065
    23  H   -0.003079  -0.014096  -0.000054  -0.047020   0.590830   0.015337
    24  H   -0.028572   0.044871   0.000348  -0.022065   0.015337   0.580970
    25  H    0.058757   0.022457  -0.003799   0.000573  -0.000910   0.002212
    26  H   -0.077023  -0.006118  -0.006549  -0.000114   0.000480  -0.000525
    27  H    0.602126  -0.169634  -0.024661   0.000055   0.000964  -0.000087
    28  H   -0.123264   0.571200  -0.002199  -0.003870   0.002618   0.003881
    29  H   -0.088064   0.032468   0.377179  -0.000009   0.000004   0.000070
    30  H    0.052526  -0.008941   0.366656  -0.000008  -0.000009   0.000070
              25         26         27         28         29         30
     1  C   -0.002772  -0.001046   0.000485  -0.001035   0.000011   0.000595
     2  C   -0.008460   0.009413   0.002470  -0.002789   0.001668  -0.009394
     3  C    0.004027  -0.007234  -0.000878   0.003595  -0.001306   0.004036
     4  C    0.009395   0.010723  -0.005903   0.002723   0.004612  -0.003906
     5  O    0.000235  -0.000610  -0.000052   0.000045   0.000513  -0.003136
     6  O    0.000424  -0.017171   0.001305  -0.000545  -0.001275   0.003136
     7  H    0.000020   0.000099   0.000025  -0.000024  -0.000008  -0.000034
     8  H   -0.000172  -0.000064  -0.000024   0.000006   0.000015   0.000212
     9  H    0.000246   0.000068  -0.000001  -0.000006   0.000001  -0.000011
    10  H    0.002931  -0.000838  -0.000001   0.000407  -0.000108   0.000141
    11  H   -0.006378   0.002186   0.000011  -0.003743   0.000680  -0.001048
    12  H    0.000279  -0.010992   0.000471   0.000057  -0.000835   0.001163
    13  C   -0.007178   0.008707   0.009102  -0.025311  -0.000460   0.000157
    14  C   -0.015836   0.031622  -0.008070   0.085502   0.003221  -0.003080
    15  C   -0.159963   0.039476   0.120317  -0.312204  -0.001359  -0.000676
    16  C    0.426834  -0.070932   0.026758  -0.020190  -0.018491   0.014383
    17  C   -0.019839   0.416781  -0.057828   0.056083   0.017644  -0.032295
    18  C   -0.006593  -0.064619  -0.229727   0.081527   0.018007  -0.031526
    19  C    0.058757  -0.077023   0.602126  -0.123264  -0.088064   0.052526
    20  C    0.022457  -0.006118  -0.169634   0.571200   0.032468  -0.008941
    21  N   -0.003799  -0.006549  -0.024661  -0.002199   0.377179   0.366656
    22  H    0.000573  -0.000114   0.000055  -0.003870  -0.000009  -0.000008
    23  H   -0.000910   0.000480   0.000964   0.002618   0.000004  -0.000009
    24  H    0.002212  -0.000525  -0.000087   0.003881   0.000070   0.000070
    25  H    0.578974  -0.027862   0.001684  -0.001995  -0.000635   0.000804
    26  H   -0.027862   0.585195  -0.003837   0.001948   0.003766  -0.007442
    27  H    0.001684  -0.003837   0.582838  -0.029975  -0.007814   0.003778
    28  H   -0.001995   0.001948  -0.029975   0.590846   0.001848  -0.000577
    29  H   -0.000635   0.003766  -0.007814   0.001848   0.448918  -0.041715
    30  H    0.000804  -0.007442   0.003778  -0.000577  -0.041715   0.431665
 Mulliken charges:
               1
     1  C   -0.603247
     2  C    0.953203
     3  C   -0.532759
     4  C   -0.619939
     5  O   -0.242292
     6  O   -0.050989
     7  H    0.161368
     8  H    0.192494
     9  H    0.158776
    10  H    0.175142
    11  H    0.212435
    12  H    0.221839
    13  C   -0.526156
    14  C   -0.279370
    15  C    0.939414
    16  C    0.076955
    17  C   -0.292937
    18  C   -0.607103
    19  C    0.169326
    20  C   -0.797117
    21  N   -0.280765
    22  H    0.129463
    23  H    0.115458
    24  H    0.154271
    25  H    0.152540
    26  H    0.192516
    27  H    0.186099
    28  H    0.125440
    29  H    0.251456
    30  H    0.264478
 Sum of Mulliken charges =  -0.00000
 Mulliken charges with hydrogens summed into heavy atoms:
               1
     1  C   -0.090610
     2  C    0.953203
     3  C   -0.145182
     4  C   -0.619939
     5  O   -0.242292
     6  O    0.170850
    13  C   -0.281235
    14  C   -0.125098
    15  C    0.939414
    16  C    0.229495
    17  C   -0.100421
    18  C   -0.607103
    19  C    0.355425
    20  C   -0.671676
    21  N    0.235169
 DipInt: DoE/N= T F RetVal/Mat= T F Init=T NMatP=  1 IDeriv=0 Min/MaxMlt=  0  4
 Entering OneElI...
 OneElI was handed 25769286557 working-precision words.
 Multipole integrals L=0 to 4 MinM= 0 MaxM= 0.
 Requested accuracy = 0.1000D-12
 ShPair: Thresh= 1.00D-13 NBox=     0 BxSize= 0.00D+00 RnKept= 1.81D+01
         NSMCal=                13695 NSMKep=               11687
 PrmmSu-InSpLW:  IPartL=    0 NPrtUS=    1 NPrtUL=    1 DoSpLW=F IThBeg=    0 IThEnd=    0 NThAct=    1.
 PrsmSu:  NPrtUS=   1 ThrOK=F IAlg=1 NPAlg=1 LenDen=           0 ISkipM=0 DoSpLW=F IThBeg=    0 IThEnd=    0.
 Prism:   IPart=     0 DynPar=F LinDyn=F Incr=         116.
 PRISM was handed 25768530175 working-precision words and 11687 shell-pairs
 IPart=  0 NShTot=       11687 NBatch=         114 AvBLen=       102.5
 PrsmSu-ThDecC:  IPartSL=    0    0 NPrtUSL=    1    1 IThBeg=    0 IThEnd=    0 CPU=   -1 GPU=   -1 NThAct=    1.
 PrSmSu:  NxtVal=            117.
 Electronic moments (au):
       -110.00000000         -0.06607385         -0.65230016          0.55684770
      -2817.87063497      -1182.69909420       -317.46293465          7.40516655
         -6.11790118         -3.32722999       2141.26684432       -278.46739108
        -68.99762348      -1036.18391173       4340.25206731       1418.89891277
       -334.23685531       -149.71413018        310.07029272        180.02275289
    -120896.39900922     -28542.90088854      -2672.70946109       7066.56987662
      -1972.96006756       1011.72166710       -337.50848298        266.82014529
         90.36543262     -30070.06654983      -7328.21200082      -2465.80992777
      -1376.62543548        712.52316376        161.62287279
 Electronic spatial extent (au):  <R**2>=           4318.0327
 DipInt: DoE/N= F T RetVal/Mat= T F Init=T NMatP=  1 IDeriv=0 Min/MaxMlt=  0  4
 Nuclear    moments (au):
        110.00000000          0.00000000         -0.00000000          0.00000000
       2742.65298017       1118.89840679        253.47568431          0.00000000
          0.00000000         -0.00000000      -2187.74119129        319.53925134
         82.01882122       1012.82045046      -4401.26897888      -1416.89800426
        336.37287884        157.31570894       -328.20025907       -201.52259867
     110096.37653531      24482.42651526       1592.17288534      -6783.80179752
       1737.95508072      -1009.76903531        134.22249564       -334.88819289
       -118.99437087      27637.90122284       5451.64454051       1592.19859745
       1399.49082228       -751.26841580       -149.13395853
 Total      moments (au):
          0.00000000         -0.06607385         -0.65230016          0.55684770
        -75.21765480        -63.80068741        -63.98725034          7.40516655
         -6.11790118         -3.32722999        -46.47434696         41.07186026
         13.02119774        -23.36346127        -61.01691158          2.00090851
          2.13602353          7.60157876        -18.12996635        -21.49984578
     -10800.02247392      -4060.47437328      -1080.53657575        282.76807910
       -235.00498684          1.95263179       -203.28598734        -68.06804760
        -28.62893824      -2432.16532699      -1876.56746031       -873.61133032
         22.86538680        -38.74525204         12.48891425
 Traceless Quadrup. (au):
         -7.54912395          3.86784344          3.68128051          7.40516655
         -6.11790118         -3.32722999
 Charge=              0.0000 electrons
 Dipole moment (field-independent basis, Debye):
    X=             -0.1679    Y=             -1.6580    Z=              1.4154  Tot=              2.1864
 Quadrupole moment (field-independent basis, Debye-Ang):
   XX=           -101.1703   YY=            -85.8141   ZZ=            -86.0650
   XY=              9.9602   XZ=             -8.2288   YZ=             -4.4752
 Traceless Quadrupole moment (field-independent basis, Debye-Ang):
   XX=            -10.1538   YY=              5.2024   ZZ=              4.9514
   XY=              9.9602   XZ=             -8.2288   YZ=             -4.4752
 Octapole moment (field-independent basis, Debye-Ang**2):
  XXX=            -33.0786  YYY=             29.2334  ZZZ=              9.2680  XYY=            -16.6292
  XXY=            -43.4295  XXZ=              1.4242  XZZ=              1.5203  YZZ=              5.4105
  YYZ=            -12.9042  XYZ=            -15.3028
 Hexadecapole moment (field-independent basis, Debye-Ang**3):
 XXXX=          -4067.8063 YYYY=          -1529.3694 ZZZZ=           -406.9819 XXXY=            106.5040
 XXXZ=            -88.5141 YYYX=              0.7355 YYYZ=            -76.5673 ZZZX=            -25.6377
 ZZZY=            -10.7830 XXYY=           -916.0701 XXZZ=           -706.8053 YYZZ=           -329.0439
 XXYZ=              8.6122 YYXZ=            -14.5933 ZZXY=              4.7039
 N-N= 9.193619613012D+02 E-N=-3.403682394295D+03  KE= 6.690317315188D+02
 Entering OneElI...
 OneElI was handed 25769400092 working-precision words.
 Calculate electrostatic properties
    NBasis =   435  MinDer = 0  MaxDer = 0
    NGrid  =    30  NMatD  =   1
 Requested accuracy = 0.1000D-12
 ShPair: Thresh= 1.00D-13 NBox=     0 BxSize= 0.00D+00 RnKept= 1.81D+01
         NSMCal=                13695 NSMKep=               10847
 PrmmSu-InSpLW:  IPartL=    0 NPrtUS=   48 NPrtUL=    1 DoSpLW=F IThBeg=    0 IThEnd=   47 NThAct=   48.
 PrsmSu:  NPrtUS=  48 ThrOK=T IAlg=1 NPAlg=1 LenDen=           0 ISkipM=0 DoSpLW=F IThBeg=    0 IThEnd=   47.
 Prism:   IPart=     0 DynPar=F LinDyn=F Incr=          67.
 PRISM was handed   536641109 working-precision words and 10847 shell-pairs
 PRISM was handed   536641109 working-precision words and 10847 shell-pairs
 PRISM was handed   536641109 working-precision words and 10847 shell-pairs
 PRISM was handed   536641109 working-precision words and 10847 shell-pairs
 PRISM was handed   536641109 working-precision words and 10847 shell-pairs
 PRISM was handed   536641109 working-precision words and 10847 shell-pairs
 PRISM was handed   536641109 working-precision words and 10847 shell-pairs
 PRISM was handed   536641109 working-precision words and 10847 shell-pairs
 PRISM was handed   536641109 working-precision words and 10847 shell-pairs
 PRISM was handed   536641109 working-precision words and 10847 shell-pairs
 PRISM was handed   536641109 working-precision words and 10847 shell-pairs
 PRISM was handed   536641109 working-precision words and 10847 shell-pairs
 PRISM was handed   536641109 working-precision words and 10847 shell-pairs
 PRISM was handed   536641109 working-precision words and 10847 shell-pairs
 PRISM was handed   536641109 working-precision words and 10847 shell-pairs
 PRISM was handed   536641109 working-precision words and 10847 shell-pairs
 PRISM was handed   536641109 working-precision words and 10847 shell-pairs
 PRISM was handed   536641109 working-precision words and 10847 shell-pairs
 PRISM was handed   536641109 working-precision words and 10847 shell-pairs
 PRISM was handed   536641109 working-precision words and 10847 shell-pairs
 PRISM was handed   536641109 working-precision words and 10847 shell-pairs
 PRISM was handed   536641109 working-precision words and 10847 shell-pairs
 PRISM was handed   536641109 working-precision words and 10847 shell-pairs
 PRISM was handed   536641109 working-precision words and 10847 shell-pairs
 PRISM was handed   536641109 working-precision words and 10847 shell-pairs
 PRISM was handed   536641109 working-precision words and 10847 shell-pairs
 PRISM was handed   536641109 working-precision words and 10847 shell-pairs
 PRISM was handed   536641109 working-precision words and 10847 shell-pairs
 PRISM was handed   536641109 working-precision words and 10847 shell-pairs
 PRISM was handed   536641109 working-precision words and 10847 shell-pairs
 PRISM was handed   536641109 working-precision words and 10847 shell-pairs
 PRISM was handed   536641109 working-precision words and 10847 shell-pairs
 PRISM was handed   536641109 working-precision words and 10847 shell-pairs
 PRISM was handed   536641109 working-precision words and 10847 shell-pairs
 PRISM was handed   536641109 working-precision words and 10847 shell-pairs
 PRISM was handed   536641109 working-precision words and 10847 shell-pairs
 PRISM was handed   536641109 working-precision words and 10847 shell-pairs
 PRISM was handed   536641109 working-precision words and 10847 shell-pairs
 PRISM was handed   536641109 working-precision words and 10847 shell-pairs
 PRISM was handed   536641109 working-precision words and 10847 shell-pairs
 PRISM was handed   536641109 working-precision words and 10847 shell-pairs
 PRISM was handed   536641109 working-precision words and 10847 shell-pairs
 PRISM was handed   536641109 working-precision words and 10847 shell-pairs
 PRISM was handed   536641109 working-precision words and 10847 shell-pairs
 PRISM was handed   536641109 working-precision words and 10847 shell-pairs
 PRISM was handed   536641109 working-precision words and 10847 shell-pairs
 PRISM was handed   536641109 working-precision words and 10847 shell-pairs
 PRISM was handed   536641109 working-precision words and 10847 shell-pairs
 IPart= 32 NShTot=        6510 NBatch=         217 AvBLen=        30.0
 PrsmSu-ThDecC:  IPartSL=   32    0 NPrtUSL=   48    1 IThBeg=    0 IThEnd=   47 CPU=   -1 GPU=   -1 NThAct=   48.
 IPart=  0 NShTot=        7890 NBatch=         263 AvBLen=        30.0
 PrsmSu-ThDecC:  IPartSL=    0    0 NPrtUSL=   48    1 IThBeg=    0 IThEnd=   47 CPU=   -1 GPU=   -1 NThAct=   47.
 IPart= 36 NShTot=        6390 NBatch=         213 AvBLen=        30.0
 PrsmSu-ThDecC:  IPartSL=   36    0 NPrtUSL=   48    1 IThBeg=    0 IThEnd=   47 CPU=   -1 GPU=   -1 NThAct=   46.
 IPart=  2 NShTot=        7680 NBatch=         256 AvBLen=        30.0
 PrsmSu-ThDecC:  IPartSL=    2    0 NPrtUSL=   48    1 IThBeg=    0 IThEnd=   47 CPU=   -1 GPU=   -1 NThAct=   45.
 IPart= 33 NShTot=        6480 NBatch=         216 AvBLen=        30.0
 IPart= 29 NShTot=        6540 NBatch=         218 AvBLen=        30.0
 PrsmSu-ThDecC:  IPartSL=   33    0 NPrtUSL=   48    1 IThBeg=    0 IThEnd=   47 CPU=   -1 GPU=   -1 NThAct=   44.
 PrsmSu-ThDecC:  IPartSL=   29    0 NPrtUSL=   48    1 IThBeg=    0 IThEnd=   47 CPU=   -1 GPU=   -1 NThAct=   43.
 IPart= 43 NShTot=        6270 NBatch=         209 AvBLen=        30.0
 PrsmSu-ThDecC:  IPartSL=   43    0 NPrtUSL=   48    1 IThBeg=    0 IThEnd=   47 CPU=   -1 GPU=   -1 NThAct=   42.
 IPart= 39 NShTot=        6300 NBatch=         210 AvBLen=        30.0
 PrsmSu-ThDecC:  IPartSL=   39    0 NPrtUSL=   48    1 IThBeg=    0 IThEnd=   47 CPU=   -1 GPU=   -1 NThAct=   41.
 IPart= 19 NShTot=        6690 NBatch=         223 AvBLen=        30.0
 PrsmSu-ThDecC:  IPartSL=   19    0 NPrtUSL=   48    1 IThBeg=    0 IThEnd=   47 CPU=   -1 GPU=   -1 NThAct=   40.
 IPart= 26 NShTot=        6600 NBatch=         220 AvBLen=        30.0
 PrsmSu-ThDecC:  IPartSL=   26    0 NPrtUSL=   48    1 IThBeg=    0 IThEnd=   47 CPU=   -1 GPU=   -1 NThAct=   39.
 IPart= 23 NShTot=        6630 NBatch=         221 AvBLen=        30.0
 PrsmSu-ThDecC:  IPartSL=   23    0 NPrtUSL=   48    1 IThBeg=    0 IThEnd=   47 CPU=   -1 GPU=   -1 NThAct=   38.
 IPart= 27 NShTot=        6600 NBatch=         220 AvBLen=        30.0
 PrsmSu-ThDecC:  IPartSL=   27    0 NPrtUSL=   48    1 IThBeg=    0 IThEnd=   47 CPU=   -1 GPU=   -1 NThAct=   37.
 IPart= 10 NShTot=        7230 NBatch=         241 AvBLen=        30.0
 PrsmSu-ThDecC:  IPartSL=   10    0 NPrtUSL=   48    1 IThBeg=    0 IThEnd=   47 CPU=   -1 GPU=   -1 NThAct=   36.
 IPart= 31 NShTot=        6510 NBatch=         217 AvBLen=        30.0
 PrsmSu-ThDecC:  IPartSL=   31    0 NPrtUSL=   48    1 IThBeg=    0 IThEnd=   47 CPU=   -1 GPU=   -1 NThAct=   35.
 IPart= 46 NShTot=        6270 NBatch=         209 AvBLen=        30.0
 PrsmSu-ThDecC:  IPartSL=   46    0 NPrtUSL=   48    1 IThBeg=    0 IThEnd=   47 CPU=   -1 GPU=   -1 NThAct=   34.
 IPart=  9 NShTot=        7260 NBatch=         242 AvBLen=        30.0
 PrsmSu-ThDecC:  IPartSL=    9    0 NPrtUSL=   48    1 IThBeg=    0 IThEnd=   47 CPU=   -1 GPU=   -1 NThAct=   33.
 IPart= 22 NShTot=        6630 NBatch=         221 AvBLen=        30.0
 PrsmSu-ThDecC:  IPartSL=   22    0 NPrtUSL=   48    1 IThBeg=    0 IThEnd=   47 CPU=   -1 GPU=   -1 NThAct=   32.
 IPart= 45 NShTot=        6270 NBatch=         209 AvBLen=        30.0
 PrsmSu-ThDecC:  IPartSL=   45    0 NPrtUSL=   48    1 IThBeg=    0 IThEnd=   47 CPU=   -1 GPU=   -1 NThAct=   31.
 IPart=  8 NShTot=        7290 NBatch=         243 AvBLen=        30.0
 IPart=  6 NShTot=        7410 NBatch=         247 AvBLen=        30.0
 PrsmSu-ThDecC:  IPartSL=    8    0 NPrtUSL=   48    1 IThBeg=    0 IThEnd=   47 CPU=   -1 GPU=   -1 NThAct=   30.
 IPart= 18 NShTot=        6690 NBatch=         223 AvBLen=        30.0
 PrsmSu-ThDecC:  IPartSL=    6    0 NPrtUSL=   48    1 IThBeg=    0 IThEnd=   47 CPU=   -1 GPU=   -1 NThAct=   29.
 PrsmSu-ThDecC:  IPartSL=   18    0 NPrtUSL=   48    1 IThBeg=    0 IThEnd=   47 CPU=   -1 GPU=   -1 NThAct=   28.
 IPart= 40 NShTot=        6300 NBatch=         210 AvBLen=        30.0
 PrsmSu-ThDecC:  IPartSL=   40    0 NPrtUSL=   48    1 IThBeg=    0 IThEnd=   47 CPU=   -1 GPU=   -1 NThAct=   27.
 IPart= 41 NShTot=        6300 NBatch=         210 AvBLen=        30.0
 PrsmSu-ThDecC:  IPartSL=   41    0 NPrtUSL=   48    1 IThBeg=    0 IThEnd=   47 CPU=   -1 GPU=   -1 NThAct=   26.
 IPart= 30 NShTot=        6510 NBatch=         217 AvBLen=        30.0
 PrsmSu-ThDecC:  IPartSL=   30    0 NPrtUSL=   48    1 IThBeg=    0 IThEnd=   47 CPU=   -1 GPU=   -1 NThAct=   25.
 IPart= 15 NShTot=        6930 NBatch=         231 AvBLen=        30.0
 PrsmSu-ThDecC:  IPartSL=   15    0 NPrtUSL=   48    1 IThBeg=    0 IThEnd=   47 CPU=   -1 GPU=   -1 NThAct=   24.
 IPart= 42 NShTot=        6300 NBatch=         210 AvBLen=        30.0
 PrsmSu-ThDecC:  IPartSL=   42    0 NPrtUSL=   48    1 IThBeg=    0 IThEnd=   47 CPU=   -1 GPU=   -1 NThAct=   23.
 IPart= 24 NShTot=        6630 NBatch=         221 AvBLen=        30.0
 PrsmSu-ThDecC:  IPartSL=   24    0 NPrtUSL=   48    1 IThBeg=    0 IThEnd=   47 CPU=   -1 GPU=   -1 NThAct=   22.
 IPart=  1 NShTot=        7740 NBatch=         258 AvBLen=        30.0
 IPart= 38 NShTot=        6330 NBatch=         211 AvBLen=        30.0
 PrsmSu-ThDecC:  IPartSL=    1    0 NPrtUSL=   48    1 IThBeg=    0 IThEnd=   47 CPU=   -1 GPU=   -1 NThAct=   21.
 PrsmSu-ThDecC:  IPartSL=   38    0 NPrtUSL=   48    1 IThBeg=    0 IThEnd=   47 CPU=   -1 GPU=   -1 NThAct=   20.
 IPart= 35 NShTot=        6390 NBatch=         213 AvBLen=        30.0
 PrsmSu-ThDecC:  IPartSL=   35    0 NPrtUSL=   48    1 IThBeg=    0 IThEnd=   47 CPU=   -1 GPU=   -1 NThAct=   19.
 IPart= 13 NShTot=        7080 NBatch=         236 AvBLen=        30.0
 PrsmSu-ThDecC:  IPartSL=   13    0 NPrtUSL=   48    1 IThBeg=    0 IThEnd=   47 CPU=   -1 GPU=   -1 NThAct=   18.
 IPart= 28 NShTot=        6600 NBatch=         220 AvBLen=        30.0
 PrsmSu-ThDecC:  IPartSL=   28    0 NPrtUSL=   48    1 IThBeg=    0 IThEnd=   47 CPU=   -1 GPU=   -1 NThAct=   17.
 IPart= 17 NShTot=        6780 NBatch=         226 AvBLen=        30.0
 PrsmSu-ThDecC:  IPartSL=   17    0 NPrtUSL=   48    1 IThBeg=    0 IThEnd=   47 CPU=   -1 GPU=   -1 NThAct=   16.
 IPart=  5 NShTot=        7500 NBatch=         250 AvBLen=        30.0
 PrsmSu-ThDecC:  IPartSL=    5    0 NPrtUSL=   48    1 IThBeg=    0 IThEnd=   47 CPU=   -1 GPU=   -1 NThAct=   15.
 IPart= 14 NShTot=        7050 NBatch=         235 AvBLen=        30.0
 PrsmSu-ThDecC:  IPartSL=   14    0 NPrtUSL=   48    1 IThBeg=    0 IThEnd=   47 CPU=   -1 GPU=   -1 NThAct=   14.
 IPart= 21 NShTot=        6660 NBatch=         222 AvBLen=        30.0
 PrsmSu-ThDecC:  IPartSL=   21    0 NPrtUSL=   48    1 IThBeg=    0 IThEnd=   47 CPU=   -1 GPU=   -1 NThAct=   13.
 IPart= 47 NShTot=        6270 NBatch=         209 AvBLen=        30.0
 PrsmSu-ThDecC:  IPartSL=   47    0 NPrtUSL=   48    1 IThBeg=    0 IThEnd=   47 CPU=   -1 GPU=   -1 NThAct=   12.
 IPart= 34 NShTot=        6420 NBatch=         214 AvBLen=        30.0
 PrsmSu-ThDecC:  IPartSL=   34    0 NPrtUSL=   48    1 IThBeg=    0 IThEnd=   47 CPU=   -1 GPU=   -1 NThAct=   11.
 IPart= 20 NShTot=        6690 NBatch=         223 AvBLen=        30.0
 PrsmSu-ThDecC:  IPartSL=   20    0 NPrtUSL=   48    1 IThBeg=    0 IThEnd=   47 CPU=   -1 GPU=   -1 NThAct=   10.
 IPart= 44 NShTot=        6270 NBatch=         209 AvBLen=        30.0
 PrsmSu-ThDecC:  IPartSL=   44    0 NPrtUSL=   48    1 IThBeg=    0 IThEnd=   47 CPU=   -1 GPU=   -1 NThAct=    9.
 IPart=  7 NShTot=        7380 NBatch=         246 AvBLen=        30.0
 PrsmSu-ThDecC:  IPartSL=    7    0 NPrtUSL=   48    1 IThBeg=    0 IThEnd=   47 CPU=   -1 GPU=   -1 NThAct=    8.
 IPart= 37 NShTot=        6360 NBatch=         212 AvBLen=        30.0
 PrsmSu-ThDecC:  IPartSL=   37    0 NPrtUSL=   48    1 IThBeg=    0 IThEnd=   47 CPU=   -1 GPU=   -1 NThAct=    7.
 IPart=  4 NShTot=        7530 NBatch=         251 AvBLen=        30.0
 PrsmSu-ThDecC:  IPartSL=    4    0 NPrtUSL=   48    1 IThBeg=    0 IThEnd=   47 CPU=   -1 GPU=   -1 NThAct=    6.
 IPart= 25 NShTot=        6600 NBatch=         220 AvBLen=        30.0
 PrsmSu-ThDecC:  IPartSL=   25    0 NPrtUSL=   48    1 IThBeg=    0 IThEnd=   47 CPU=   -1 GPU=   -1 NThAct=    5.
 IPart= 16 NShTot=        6840 NBatch=         228 AvBLen=        30.0
 PrsmSu-ThDecC:  IPartSL=   16    0 NPrtUSL=   48    1 IThBeg=    0 IThEnd=   47 CPU=   -1 GPU=   -1 NThAct=    4.
 IPart= 12 NShTot=        7080 NBatch=         236 AvBLen=        30.0
 PrsmSu-ThDecC:  IPartSL=   12    0 NPrtUSL=   48    1 IThBeg=    0 IThEnd=   47 CPU=   -1 GPU=   -1 NThAct=    3.
 IPart= 11 NShTot=        7170 NBatch=         239 AvBLen=        30.0
 PrsmSu-ThDecC:  IPartSL=   11    0 NPrtUSL=   48    1 IThBeg=    0 IThEnd=   47 CPU=   -1 GPU=   -1 NThAct=    2.
 IPart=  3 NShTot=        7560 NBatch=         252 AvBLen=        30.0
 PrsmSu-ThDecC:  IPartSL=    3    0 NPrtUSL=   48    1 IThBeg=    0 IThEnd=   47 CPU=   -1 GPU=   -1 NThAct=    1.
 PrSmSu:  NxtVal=           3217.
 --------------------------------------------------------
       Center         ----      EFG at Nuclei      ----
                      3XX-RR        3YY-RR        3ZZ-RR
 --------------------------------------------------------
     1   Atom       -0.039550      0.026591      0.012959
     2   Atom        0.225304      0.037821     -0.263124
     3   Atom        0.178652      0.129171     -0.307822
     4   Atom       -0.240315      0.351657     -0.111342
     5   Atom       -0.705510      0.714743     -0.009233
     6   Atom        0.525245      0.461025     -0.986269
     7   Atom        0.141991     -0.070968     -0.071023
     8   Atom       -0.049380     -0.040673      0.090054
     9   Atom        0.099987      0.050217     -0.150204
    10   Atom        0.150073     -0.320772      0.170699
    11   Atom       -0.229363      0.078471      0.150892
    12   Atom        0.157282     -0.054017     -0.103265
    13   Atom       -0.129548      0.023568      0.105980
    14   Atom       -0.157383      0.015878      0.141505
    15   Atom       -0.081128      0.016793      0.064335
    16   Atom       -0.119521      0.091833      0.027688
    17   Atom       -0.053902      0.090667     -0.036765
    18   Atom       -0.094725     -0.057480      0.152205
    19   Atom       -0.024461      0.024857     -0.000396
    20   Atom       -0.111590      0.056457      0.055133
    21   Atom       -0.092352     -0.108800      0.201152
    22   Atom        0.027925     -0.146305      0.118379
    23   Atom        0.162667      0.117749     -0.280416
    24   Atom        0.164143      0.102501     -0.266644
    25   Atom        0.158387      0.015446     -0.173833
    26   Atom        0.055571      0.114874     -0.170445
    27   Atom        0.159888      0.002280     -0.162168
    28   Atom       -0.049427      0.120404     -0.070976
    29   Atom        0.190582     -0.015268     -0.175314
    30   Atom       -0.290515      0.184597      0.105918
 --------------------------------------------------------
                        XY            XZ            YZ
 --------------------------------------------------------
     1   Atom       -0.075995     -0.017232     -0.009939
     2   Atom       -0.086017      0.115557      0.019609
     3   Atom       -0.055530      0.097332      0.008882
     4   Atom       -0.134078      0.187776     -0.110646
     5   Atom        0.661588      0.470014      1.021523
     6   Atom        0.082534     -1.142361      0.149681
     7   Atom        0.040678      0.040327     -0.230484
     8   Atom        0.189958     -0.116158      0.110407
     9   Atom       -0.077539      0.121803      0.183483
    10   Atom       -0.045317     -0.005392     -0.010737
    11   Atom       -0.167020     -0.083630     -0.037745
    12   Atom        0.184587     -0.223926      0.319082
    13   Atom       -0.167076     -0.082662      0.003546
    14   Atom       -0.210551     -0.151621      0.001461
    15   Atom       -0.098896     -0.125225     -0.064985
    16   Atom       -0.233501     -0.161407     -0.066116
    17   Atom       -0.148300     -0.068861     -0.043035
    18   Atom       -0.108071     -0.201341     -0.119965
    19   Atom       -0.104627     -0.080468     -0.066859
    20   Atom       -0.159084     -0.169909     -0.113502
    21   Atom        0.428288      0.493997      0.541779
    22   Atom        0.216805     -0.067381      0.111205
    23   Atom       -0.006753      0.056317      0.139986
    24   Atom       -0.000307      0.036333      0.153302
    25   Atom       -0.014903      0.044643      0.222795
    26   Atom        0.075076      0.202568     -0.106753
    27   Atom       -0.025368      0.062604      0.225811
    28   Atom        0.095396      0.228438     -0.086273
    29   Atom        0.011897      0.042908      0.300674
    30   Atom        0.021366      0.240402      0.029050
 --------------------------------------------------------


 ---------------------------------------------------------------------------------
              Nuclear Quadrupole Coupling Constant in Principal Axis System
 ---------------------------------------------------------------------------------

       Atom             a.u.   MegaHertz   Gauss  10(-4) cm-1        Axes

              Baa    -0.5420     2.603     0.929     0.868 -0.4679  0.8327 -0.2961
    21 N(14)  Bbb    -0.4577     2.198     0.784     0.733  0.7196  0.1644 -0.6747
              Bcc     0.9997    -4.801    -1.713    -1.602  0.5132  0.5287  0.6761
 

 ---------------------------------------------------------------------------------

 No NMR shielding tensors so no spin-rotation constants.
 Leave Link  601 at Thu Apr 21 14:57:30 2022, MaxMem= 25769803776 cpu:              25.9 elap:               0.6
 Calling FoFJK, ICntrl=      2127 FMM=F ISym2X=0 I1Cent= 0 IOpClX= 0 NMat=1 NMatS=1 NMatT=0.
 ***** Axes restored to original set *****
 -------------------------------------------------------------------
 Center     Atomic                   Forces (Hartrees/Bohr)
 Number     Number              X              Y              Z
 -------------------------------------------------------------------
      1        6           0.017552421    0.014396922   -0.013665351
      2        6          -0.003724619   -0.032392208   -0.012592023
      3        6          -0.012406498    0.025445441    0.012364437
      4        6           0.010231063   -0.049730774   -0.017341597
      5        8          -0.009101312    0.039856548    0.027095474
      6        8          -0.008106931   -0.018282227   -0.016455028
      7        1           0.002410073    0.003980215   -0.001655414
      8        1           0.001968354   -0.003404483    0.008452467
      9        1           0.006303967   -0.008499177    0.000058817
     10        1          -0.005646688    0.007864769    0.001469975
     11        1          -0.002812302    0.000425585    0.000163948
     12        1           0.001471798    0.019179436    0.010777723
     13        6          -0.005509847   -0.020322660    0.012193143
     14        6          -0.013106862    0.022364866   -0.024324703
     15        6           0.015795298    0.015325090    0.009620238
     16        6          -0.006063481    0.007292668   -0.017025801
     17        6          -0.019187712   -0.013413543   -0.003118495
     18        6           0.009572489    0.032315672    0.006408959
     19        6           0.008238319    0.038860707    0.024654675
     20        6          -0.007100614   -0.025083261    0.011684906
     21        7           0.005559647   -0.051010372   -0.012859210
     22        1           0.006733913    0.002371154    0.001850946
     23        1           0.001241434   -0.000298120   -0.003784235
     24        1          -0.000169535    0.000354114    0.004289687
     25        1          -0.000474689    0.005420057    0.001577085
     26        1           0.005388741   -0.011791469   -0.007616883
     27        1          -0.000082997   -0.006130590   -0.000034688
     28        1           0.002270764    0.000004345   -0.005831401
     29        1          -0.000961393    0.004928883   -0.000113337
     30        1          -0.000282802   -0.000027586    0.003755689
 -------------------------------------------------------------------
[...]
 **** Fit       0.005351
 **** Fit      -0.012683
 **** Fit      -0.013311
 **** Fit      -0.013285
 **** Fit      -0.012444
 **** Fit      -0.010769
 **** Fit      -0.008424
 **** Fit      -0.005702
 **** Fit      -0.002932
 **** Fit      -0.000397
 **** Fit       0.001702
 **** Fit       0.003264
 **** Fit       0.004294
 **** Fit       0.004876
 **** Fit       0.005135
 **** Fit       0.005187
 **** Fit      -0.012752
 **** Fit      -0.012719
 **** Fit      -0.011995
 **** Fit      -0.010556
 **** Fit      -0.008513
 **** Fit      -0.006083
 **** Fit      -0.003533
 **** Fit      -0.001116
 **** Fit       0.000961
 **** Fit       0.002576
 **** Fit       0.003701
 **** Fit       0.004395
 **** Fit       0.004760
 **** Fit       0.004901
 **** Fit      -0.009897
 **** Fit      -0.008147
 **** Fit      -0.006043
 **** Fit      -0.003792
 **** Fit      -0.001604
 **** Fit       0.000337
 **** Fit       0.001906
 **** Fit       0.003060
 **** Fit       0.003827
 **** Fit       0.004284
 **** Fit      -0.007575
 **** Fit      -0.005783
 **** Fit      -0.003844
 **** Fit      -0.001924
 **** Fit      -0.000176
 **** Fit       0.001289
 **** Fit       0.002420
 **** Fit       0.003225
 **** Fit       0.003752
 **** Fit      -0.005438
 **** Fit      -0.003788
 **** Fit      -0.002131
 **** Fit      -0.000588
 **** Fit       0.000747
 **** Fit       0.001823
 **** Fit       0.003461
 **** Fit       0.003753
 **** Fit       0.003975
 **** Fit       0.004094
 **** Fit       0.004099
 **** Fit       0.004007
 **** Fit       0.002961
 **** Fit       0.003420
 **** Fit       0.003916
 **** Fit       0.004384
 **** Fit       0.004744
 **** Fit       0.004926
 **** Fit       0.004908
 **** Fit       0.004723
 **** Fit       0.004440
 **** Fit       0.004132
 **** Fit       0.002524
 **** Fit       0.003066
 **** Fit       0.003747
 **** Fit       0.004522
 **** Fit       0.005284
 **** Fit       0.005875
 **** Fit       0.006160
 **** Fit       0.006093
 **** Fit       0.005743
 **** Fit       0.005246
 **** Fit       0.004731
 **** Fit       0.004282
 **** Fit       0.001853
 **** Fit       0.002362
 **** Fit       0.003096
 **** Fit       0.004085
 **** Fit       0.005281
 **** Fit       0.006510
 **** Fit       0.007483
 **** Fit       0.007928
 **** Fit       0.007760
 **** Fit       0.007129
 **** Fit       0.006293
 **** Fit       0.005475
 **** Fit       0.004796
 **** Fit       0.004289
 **** Fit       0.001410
 **** Fit       0.002010
 **** Fit       0.002956
 **** Fit       0.004331
 **** Fit       0.006111
 **** Fit       0.008036
 **** Fit       0.009598
 **** Fit       0.010277
 **** Fit       0.009925
 **** Fit       0.008849
 **** Fit       0.007526
 **** Fit       0.006309
 **** Fit       0.005351
 **** Fit       0.004666
 **** Fit       0.000397
 **** Fit       0.000733
 **** Fit       0.001380
 **** Fit       0.002509
 **** Fit       0.004289
 **** Fit       0.006759
 **** Fit       0.009586
 **** Fit       0.011949
 **** Fit       0.012941
 **** Fit       0.012318
 **** Fit       0.010655
 **** Fit       0.008749
 **** Fit       0.007099
 **** Fit       0.005864
 **** Fit       0.005017
 **** Fit       0.004466
 **** Fit      -0.000462
 **** Fit      -0.000213
 **** Fit       0.000398
 **** Fit       0.001604
 **** Fit       0.003673
 **** Fit       0.006744
 **** Fit       0.010457
 **** Fit       0.013671
 **** Fit       0.015025
 **** Fit       0.014164
 **** Fit       0.011978
 **** Fit       0.009595
 **** Fit       0.007631
 **** Fit       0.006221
 **** Fit       0.005282
 **** Fit       0.004683
 **** Fit      -0.001509
 **** Fit      -0.001419
 **** Fit      -0.000956
 **** Fit       0.000150
 **** Fit       0.002232
 **** Fit       0.005515
 **** Fit       0.009673
 **** Fit       0.014325
 **** Fit       0.012075
 **** Fit       0.009647
 **** Fit       0.007691
 **** Fit       0.006313
 **** Fit       0.005408
 **** Fit       0.004832
 **** Fit      -0.002687
 **** Fit      -0.002818
 **** Fit      -0.002607
 **** Fit      -0.001790
 **** Fit      -0.000032
 **** Fit       0.002909
 **** Fit       0.006783
 **** Fit       0.012170
 **** Fit       0.010570
 **** Fit       0.008716
 **** Fit       0.007186
 **** Fit       0.006097
 **** Fit       0.005371
 **** Fit       0.004899
 **** Fit      -0.003909
 **** Fit      -0.004287
 **** Fit      -0.004389
 **** Fit      -0.003978
 **** Fit      -0.002769
 **** Fit      -0.000551
 **** Fit       0.002515
 **** Fit       0.005640
 **** Fit       0.007740
 **** Fit       0.008341
 **** Fit       0.007868
 **** Fit       0.007018
 **** Fit       0.006223
 **** Fit       0.005615
 **** Fit       0.005185
 **** Fit       0.004884
 **** Fit      -0.005068
 **** Fit      -0.005682
 **** Fit      -0.006090
 **** Fit      -0.006091
 **** Fit      -0.005453
 **** Fit      -0.004001
 **** Fit      -0.001798
 **** Fit       0.000707
 **** Fit       0.002846
 **** Fit       0.004203
 **** Fit       0.004832
 **** Fit       0.005027
 **** Fit       0.005032
 **** Fit       0.004972
 **** Fit       0.004890
 **** Fit       0.004795
 **** Fit      -0.006868
 **** Fit      -0.007518
 **** Fit      -0.007849
 **** Fit      -0.007662
 **** Fit      -0.006795
 **** Fit      -0.005235
 **** Fit      -0.003204
 **** Fit      -0.001095
 **** Fit       0.000740
 **** Fit       0.002149
 **** Fit       0.003153
 **** Fit       0.003835
 **** Fit       0.004273
 **** Fit       0.004526
 **** Fit       0.004641
 **** Fit      -0.007756
 **** Fit      -0.008554
 **** Fit      -0.009091
 **** Fit      -0.009190
 **** Fit      -0.008693
 **** Fit      -0.007539
 **** Fit      -0.005827
 **** Fit      -0.003802
 **** Fit      -0.001755
 **** Fit       0.000085
 **** Fit       0.001600
 **** Fit       0.002761
 **** Fit       0.003585
 **** Fit       0.004119
 **** Fit       0.004423
 **** Fit      -0.009162
 **** Fit      -0.009784
 **** Fit      -0.010021
 **** Fit      -0.009726
 **** Fit      -0.008817
 **** Fit      -0.007334
 **** Fit      -0.005439
 **** Fit      -0.003372
 **** Fit      -0.001365
 **** Fit       0.000408
 **** Fit       0.001851
 **** Fit       0.002935
 **** Fit       0.003679
 **** Fit       0.004139
 **** Fit       0.004382
 **** Fit      -0.010260
 **** Fit      -0.010056
 **** Fit      -0.009297
 **** Fit      -0.007997
 **** Fit      -0.006269
 **** Fit      -0.004302
 **** Fit      -0.002307
 **** Fit      -0.000464
 **** Fit       0.001102
 **** Fit       0.002329
 **** Fit       0.003210
 **** Fit       0.003788
 **** Fit      -0.009224
 **** Fit      -0.008080
 **** Fit      -0.006537
 **** Fit      -0.004740
 **** Fit      -0.002865
 **** Fit      -0.001077
 **** Fit       0.000493
 **** Fit       0.001767
 **** Fit       0.002721
 **** Fit       0.003379
 **** Fit      -0.004851
 **** Fit      -0.003152
 **** Fit      -0.001495
 **** Fit       0.000000
 **** Fit       0.001253
 **** Fit       0.002227
 **** Fit      -0.003264
 **** Fit      -0.001772
 **** Fit      -0.000394
 **** Fit       0.000792
 **** Fit       0.003689
 **** Fit       0.003818
 **** Fit       0.003098
 **** Fit       0.003529
 **** Fit       0.003932
 **** Fit       0.004248
 **** Fit       0.004431
 **** Fit       0.004462
 **** Fit       0.004361
 **** Fit       0.004172
 **** Fit       0.002729
 **** Fit       0.003298
 **** Fit       0.003920
 **** Fit       0.004517
 **** Fit       0.004988
 **** Fit       0.005250
 **** Fit       0.005270
 **** Fit       0.005085
 **** Fit       0.004772
 **** Fit       0.004417
 **** Fit       0.002078
 **** Fit       0.002688
 **** Fit       0.003458
 **** Fit       0.004338
 **** Fit       0.005210
 **** Fit       0.005907
 **** Fit       0.006282
 **** Fit       0.006281
 **** Fit       0.005969
 **** Fit       0.005484
 **** Fit       0.004957
 **** Fit       0.004480
 **** Fit       0.001229
 **** Fit       0.001745
 **** Fit       0.002492
 **** Fit       0.003491
 **** Fit       0.004689
 **** Fit       0.005919
 **** Fit       0.006920
 **** Fit       0.007447
 **** Fit       0.007416
 **** Fit       0.006940
 **** Fit       0.006239
 **** Fit       0.005512
 **** Fit       0.004878
 **** Fit       0.004382
 **** Fit       0.000650
 **** Fit       0.001196
 **** Fit       0.002050
 **** Fit       0.003264
 **** Fit       0.004794
 **** Fit       0.006428
 **** Fit       0.007790
 **** Fit       0.008507
 **** Fit       0.008454
 **** Fit       0.007810
 **** Fit       0.006896
 **** Fit       0.005983
 **** Fit       0.005214
 **** Fit       0.004629
 **** Fit      -0.000131
 **** Fit       0.000388
 **** Fit       0.001277
 **** Fit       0.002625
 **** Fit       0.004411
 **** Fit       0.006396
 **** Fit       0.008103
 **** Fit       0.009034
 **** Fit       0.009014
 **** Fit       0.008283
 **** Fit       0.007250
 **** Fit       0.006240
 **** Fit       0.005408
 **** Fit       0.004788
 **** Fit      -0.001102
 **** Fit      -0.000684
 **** Fit       0.000135
 **** Fit       0.001471
 **** Fit       0.003332
 **** Fit       0.005486
 **** Fit       0.007414
 **** Fit       0.008552
 **** Fit       0.008685
 **** Fit       0.008057
 **** Fit       0.007106
 **** Fit       0.006167
 **** Fit       0.005396
 **** Fit       0.004823
 **** Fit      -0.002212
 **** Fit      -0.001963
 **** Fit      -0.001322
 **** Fit      -0.000161
 **** Fit       0.001550
 **** Fit       0.003619
 **** Fit       0.005576
 **** Fit       0.006885
 **** Fit       0.007308
 **** Fit       0.007021
 **** Fit       0.006394
 **** Fit       0.005722
 **** Fit       0.005152
 **** Fit       0.004719
 **** Fit      -0.003376
 **** Fit      -0.003333
 **** Fit      -0.002939
 **** Fit      -0.002067
 **** Fit      -0.000671
 **** Fit       0.001117
 **** Fit       0.002941
 **** Fit       0.004366
 **** Fit       0.005152
 **** Fit       0.005362
 **** Fit       0.005230
 **** Fit       0.004971
 **** Fit       0.004708
 **** Fit       0.004487
 **** Fit      -0.004490
 **** Fit      -0.004653
 **** Fit      -0.004516
 **** Fit      -0.003958
 **** Fit      -0.002922
 **** Fit      -0.001475
 **** Fit       0.000147
 **** Fit       0.001630
 **** Fit       0.002749
 **** Fit       0.003460
 **** Fit       0.003853
 **** Fit       0.004048
 **** Fit       0.004133
 **** Fit       0.004158
 **** Fit      -0.005793
 **** Fit      -0.005871
 **** Fit      -0.005582
 **** Fit      -0.004854
 **** Fit      -0.003707
 **** Fit      -0.002279
 **** Fit      -0.000788
 **** Fit       0.000564
 **** Fit       0.001664
 **** Fit       0.002496
 **** Fit       0.003094
 **** Fit       0.003505
 **** Fit      -0.006667
 **** Fit      -0.006892
 **** Fit      -0.006791
 **** Fit      -0.006286
 **** Fit      -0.005361
 **** Fit      -0.004095
 **** Fit      -0.002639
 **** Fit      -0.001169
 **** Fit       0.000173
 **** Fit       0.001308
 **** Fit       0.002208
 **** Fit       0.002882
 **** Fit      -0.007543
 **** Fit      -0.007551
 **** Fit      -0.007185
 **** Fit      -0.006415
 **** Fit      -0.005283
 **** Fit      -0.003897
 **** Fit      -0.002407
 **** Fit      -0.000955
 **** Fit       0.000348
 **** Fit       0.001440
 **** Fit      -0.007614
 **** Fit      -0.006952
 **** Fit      -0.005935
 **** Fit      -0.004646
 **** Fit      -0.003206
 **** Fit      -0.001747
 **** Fit       0.000800
 **** Fit       0.003462
 **** Fit       0.003735
 **** Fit       0.003909
 **** Fit       0.003973
 **** Fit       0.002860
 **** Fit       0.003351
 **** Fit       0.003817
 **** Fit       0.004193
 **** Fit       0.004428
 **** Fit       0.004499
 **** Fit       0.004425
 **** Fit       0.004249
 **** Fit       0.002306
 **** Fit       0.002898
 **** Fit       0.003548
 **** Fit       0.004179
 **** Fit       0.004693
 **** Fit       0.005008
 **** Fit       0.005091
 **** Fit       0.004968
 **** Fit       0.004710
 **** Fit       0.004394
 **** Fit       0.001503
 **** Fit       0.002084
 **** Fit       0.002813
 **** Fit       0.003642
 **** Fit       0.004468
 **** Fit       0.005151
 **** Fit       0.005569
 **** Fit       0.005670
 **** Fit       0.005497
 **** Fit       0.005152
 **** Fit       0.004743
 **** Fit       0.004350
 **** Fit       0.001029
 **** Fit       0.001674
 **** Fit       0.002521
 **** Fit       0.003522
 **** Fit       0.004549
 **** Fit       0.005418
 **** Fit       0.005957
 **** Fit       0.006096
 **** Fit       0.005893
 **** Fit       0.005482
 **** Fit       0.005002
 **** Fit       0.004551
 **** Fit       0.000367
 **** Fit       0.001028
 **** Fit       0.001943
 **** Fit       0.003068
 **** Fit       0.004260
 **** Fit       0.005299
 **** Fit       0.005971
 **** Fit       0.006184
 **** Fit       0.006003
 **** Fit       0.005587
 **** Fit       0.005095
 **** Fit       0.004635
 **** Fit      -0.000480
 **** Fit       0.000136
 **** Fit       0.001040
 **** Fit       0.002200
 **** Fit       0.003475
 **** Fit       0.004633
 **** Fit       0.005436
 **** Fit       0.005772
 **** Fit       0.005698
 **** Fit       0.005374
 **** Fit       0.004959
 **** Fit       0.004562
 **** Fit      -0.001470
 **** Fit      -0.000961
 **** Fit      -0.000151
 **** Fit       0.000942
 **** Fit       0.002197
 **** Fit       0.003398
 **** Fit       0.004315
 **** Fit       0.004821
 **** Fit       0.004946
 **** Fit       0.004819
 **** Fit       0.004578
 **** Fit       0.004321
 **** Fit      -0.002527
 **** Fit      -0.002165
 **** Fit      -0.001511
 **** Fit      -0.000564
 **** Fit       0.000586
 **** Fit       0.001763
 **** Fit       0.002765
 **** Fit       0.003462
 **** Fit       0.003844
 **** Fit       0.003987
 **** Fit       0.003991
 **** Fit       0.003932
 **** Fit      -0.003555
 **** Fit      -0.003353
 **** Fit      -0.002875
 **** Fit      -0.002106
 **** Fit      -0.001102
 **** Fit       0.000009
 **** Fit       0.001064
 **** Fit       0.001936
 **** Fit       0.002577
 **** Fit       0.003007
 **** Fit       0.003279
 **** Fit       0.003444
 **** Fit      -0.004407
 **** Fit      -0.004089
 **** Fit      -0.003487
 **** Fit      -0.002629
 **** Fit      -0.001599
 **** Fit      -0.000524
 **** Fit       0.000478
 **** Fit       0.001332
 **** Fit       0.002013
 **** Fit       0.002530
 **** Fit      -0.005052
 **** Fit      -0.004584
 **** Fit      -0.003848
 **** Fit      -0.002900
 **** Fit      -0.001835
 **** Fit      -0.000758
 **** Fit       0.000240
 **** Fit       0.001106
 **** Fit      -0.005351
 **** Fit      -0.004711
 **** Fit      -0.003839
 **** Fit      -0.002808
 **** Fit      -0.001712
 **** Fit      -0.000639
 **** Fit       0.002914
 **** Fit       0.003383
 **** Fit       0.003775
 **** Fit       0.004042
 **** Fit       0.004162
 **** Fit       0.004146
 **** Fit       0.002282
 **** Fit       0.002874
 **** Fit       0.003456
 **** Fit       0.003949
 **** Fit       0.004287
 **** Fit       0.004439
 **** Fit       0.004418
 **** Fit       0.004274
 **** Fit       0.001372
 **** Fit       0.001981
 **** Fit       0.002669
 **** Fit       0.003361
 **** Fit       0.003961
 **** Fit       0.004380
 **** Fit       0.004578
 **** Fit       0.004570
 **** Fit       0.004417
 **** Fit       0.004188
 **** Fit       0.000838
 **** Fit       0.001484
 **** Fit       0.002238
 **** Fit       0.003020
 **** Fit       0.003716
 **** Fit       0.004222
 **** Fit       0.004486
 **** Fit       0.004523
 **** Fit       0.004398
 **** Fit       0.004188
 **** Fit       0.000137
 **** Fit       0.000776
 **** Fit       0.001552
 **** Fit       0.002383
 **** Fit       0.003151
 **** Fit       0.003744
 **** Fit       0.004097
 **** Fit       0.004220
 **** Fit       0.004171
 **** Fit       0.004028
 **** Fit      -0.000701
 **** Fit      -0.000112
 **** Fit       0.000635
 **** Fit       0.001467
 **** Fit       0.002275
 **** Fit       0.002944
 **** Fit       0.003405
 **** Fit       0.003652
 **** Fit       0.003730
 **** Fit       0.003703
 **** Fit      -0.001612
 **** Fit      -0.001108
 **** Fit      -0.000431
 **** Fit       0.000361
 **** Fit       0.001175
 **** Fit       0.001906
 **** Fit       0.002480
 **** Fit       0.002875
 **** Fit       0.003114
 **** Fit       0.003239
 **** Fit      -0.002518
 **** Fit      -0.002115
 **** Fit      -0.001529
 **** Fit      -0.000802
 **** Fit      -0.000006
 **** Fit       0.000767
 **** Fit       0.001445
 **** Fit       0.001988
 **** Fit       0.002394
 **** Fit       0.002684
 **** Fit      -0.003037
 **** Fit      -0.002544
 **** Fit      -0.001889
 **** Fit      -0.001126
 **** Fit      -0.000331
 **** Fit       0.000426
 **** Fit       0.001095
 **** Fit       0.001652
 **** Fit      -0.002806
 **** Fit      -0.002083
 **** Fit      -0.001286
 **** Fit      -0.000479
 **** Fit       0.003110
 **** Fit       0.003389
 **** Fit       0.002576
 **** Fit       0.003014
 **** Fit       0.003349
 **** Fit       0.003555
 **** Fit       0.001700
 **** Fit       0.002247
 **** Fit       0.002746
 **** Fit       0.003141
 **** Fit       0.003400
 **** Fit       0.003523
 **** Fit       0.001155
 **** Fit       0.001735
 **** Fit       0.002282
 **** Fit       0.002735
 **** Fit       0.003058
 **** Fit       0.003245
 **** Fit       0.000466
 **** Fit       0.001055
 **** Fit       0.001633
 **** Fit       0.002140
 **** Fit       0.002534
 **** Fit       0.002803
 **** Fit      -0.000316
 **** Fit       0.000259
 **** Fit       0.000851
 **** Fit       0.001403
 **** Fit       0.001869
 **** Fit       0.002230
 **** Fit      -0.000578
 **** Fit       0.000013
 **** Fit       0.000598
 **** Fit       0.001130
 -----------------------------------------------------------------
 Leave Link  602 at Thu Apr 21 15:41:39 2022, MaxMem=   104857600 cpu:               3.5 elap:               3.5
 (Enter /opt/ohpc/pub/libs/gaussian/g16-A.03/haswell/g16/l9999.exe)

 Test job not archived.
 1\1\GINC-CASCADEB019\SP\RB3LYP\6-311++G(d,p)\C12H15N1O2\MNG228\21-Apr-
 2022\0\\#P B3LYP/6-311++G(d,p) Geom=Allcheck SCF=Tight EmpiricalDisper
 sion=GD3BJ Pop=CHELPG SP IOp(6/33=2)\\MAA1-AS1 geo opt\\0,1\C,0,11.930
 3607083,15.5906654651,11.4273382836\C,0,11.4136737254,14.8774512373,12
 .6438037143\C,0,10.9548500525,15.5181796044,13.7222163651\C,0,11.35940
 3279,13.3863214648,12.5223884871\O,0,11.4270696638,12.8117823076,11.46
 34816585\O,0,11.2228675766,12.6597740245,13.6619285128\H,0,11.90845988
 34,16.6705206538,11.5761445359\H,0,11.3205766912,15.3376325571,10.5577
 266866\H,0,12.953662529,15.2829838064,11.1963657523\H,0,10.9511404365,
 16.6001238063,13.7693145192\H,0,10.5031438839,15.0142001646,14.5688993
 032\H,0,11.2556877367,13.2420361191,14.4303705299\C,0,8.0074721737,18.
 572605311,12.5253300853\C,0,7.6565152761,17.4866717253,13.2242766086\C
 ,0,7.8184548227,16.0842426318,12.8339816725\C,0,7.5782749299,15.071204
 8526,13.774235598\C,0,7.7757781789,13.7306964041,13.4739247442\C,0,8.2
 215430435,13.3454144001,12.201720402\C,0,8.423108182,14.3513745977,11.
 2385674932\C,0,8.2245040011,15.6830957519,11.5506838016\N,0,8.42425221
 55,12.010675295,11.8768397542\H,0,7.8356201748,19.5668583192,12.918480
 2979\H,0,8.4692194836,18.511755692,11.546060667\H,0,7.2100558578,17.63
 52658135,14.2055755729\H,0,7.2442415221,15.3457169701,14.7699190044\H,
 0,7.5947029068,12.9724114545,14.2286014774\H,0,8.7497128606,14.0688049
 838,10.2441883717\H,0,8.3960921691,16.429067458,10.783705996\H,0,9.150
 6315806,11.8572520076,11.1890922013\H,0,8.5549244552,11.4012151208,12.
 6718379032\\Version=ES64L-G16RevA.03\State=1-A\HF=-671.7437021\RMSD=3.
 259e-09\Dipole=0.3686295,0.6780125,0.9764825\Quadrupole=-4.8859791,-1.
 1283364,6.0143156,4.1346708,-0.4336656,-3.4378527\PG=C01 [X(C12H15N1O2
 )]\\@


 We make a living by what we get,
 we make a life by what we give.
                   -- Sir Winston Churchill
 Job cpu time:       0 days  0 hours 12 minutes 27.5 seconds.
 Elapsed time:       0 days  0 hours 12 minutes 30.0 seconds.
 File lengths (MBytes):  RWF=    336 Int=      0 D2E=      0 Chk=     32 Scr=     32
 Normal termination of Gaussian 16 at Thu Apr 21 15:41:39 2022.
