 Entering Gaussian System, Link 0=g16
 Initial command:
 /mnt/gpfs3_amd/share/apps/amd/gaussian/g16-A.03/g16/l1.exe "g16_scratch/Gau-2286910.inp" -scrdir="g16_scratch/"
 Entering Link 1 = /mnt/gpfs3_amd/share/apps/amd/gaussian/g16-A.03/g16/l1.exe PID=   2286911.
  
 Copyright (c) 1988,1990,1992,1993,1995,1998,2003,2009,2016,
            Gaussian, Inc.  All Rights Reserved.
  
 This is part of the Gaussian(R) 16 program.  It is based on
 the Gaussian(R) 09 system (copyright 2009, Gaussian, Inc.),
 the Gaussian(R) 03 system (copyright 2003, Gaussian, Inc.),
 the Gaussian(R) 98 system (copyright 1998, Gaussian, Inc.),
 the Gaussian(R) 94 system (copyright 1995, Gaussian, Inc.),
 the Gaussian 92(TM) system (copyright 1992, Gaussian, Inc.),
 the Gaussian 90(TM) system (copyright 1990, Gaussian, Inc.),
 the Gaussian 88(TM) system (copyright 1988, Gaussian, Inc.),
 the Gaussian 86(TM) system (copyright 1986, Carnegie Mellon
 University), and the Gaussian 82(TM) system (copyright 1983,
 Carnegie Mellon University). Gaussian is a federally registered
 trademark of Gaussian, Inc.
  
 This software contains proprietary and confidential information,
 including trade secrets, belonging to Gaussian, Inc.
  
 This software is provided under written license and may be
 used, copied, transmitted, or stored only in accord with that
 written license.
  
 The following legend is applicable only to US Government
 contracts under FAR:
  
                    RESTRICTED RIGHTS LEGEND
  
 Use, reproduction and disclosure by the US Government is
 subject to restrictions as set forth in subparagraphs (a)
 and (c) of the Commercial Computer Software - Restricted
 Rights clause in FAR 52.227-19.
  
 Gaussian, Inc.
 340 Quinnipiac St., Bldg. 40, Wallingford CT 06492
  
  
 ---------------------------------------------------------------
 Warning -- This program may not be used in any manner that
 competes with the business of Gaussian, Inc. or will provide
 assistance to any competitor of Gaussian, Inc.  The licensee
 of this program is prohibited from giving any competitor of
 Gaussian, Inc. access to this program.  By using this program,
 the user acknowledges that Gaussian, Inc. is engaged in the
 business of creating and licensing software in the field of
 computational chemistry and represents and warrants to the
 licensee that it is not a competitor of Gaussian, Inc. and that
 it will not use this program in any manner prohibited above.
 ---------------------------------------------------------------
  

 Cite this work as:
 Gaussian 16, Revision A.03,
 M. J. Frisch, G. W. Trucks, H. B. Schlegel, G. E. Scuseria, 
 M. A. Robb, J. R. Cheeseman, G. Scalmani, V. Barone, 
 G. A. Petersson, H. Nakatsuji, X. Li, M. Caricato, A. V. Marenich, 
 J. Bloino, B. G. Janesko, R. Gomperts, B. Mennucci, H. P. Hratchian, 
 J. V. Ortiz, A. F. Izmaylov, J. L. Sonnenberg, D. Williams-Young, 
 F. Ding, F. Lipparini, F. Egidi, J. Goings, B. Peng, A. Petrone, 
 T. Henderson, D. Ranasinghe, V. G. Zakrzewski, J. Gao, N. Rega, 
 G. Zheng, W. Liang, M. Hada, M. Ehara, K. Toyota, R. Fukuda, 
 J. Hasegawa, M. Ishida, T. Nakajima, Y. Honda, O. Kitao, H. Nakai, 
 T. Vreven, K. Throssell, J. A. Montgomery, Jr., J. E. Peralta, 
 F. Ogliaro, M. J. Bearpark, J. J. Heyd, E. N. Brothers, K. N. Kudin, 
 V. N. Staroverov, T. A. Keith, R. Kobayashi, J. Normand, 
 K. Raghavachari, A. P. Rendell, J. C. Burant, S. S. Iyengar, 
 J. Tomasi, M. Cossi, J. M. Millam, M. Klene, C. Adamo, R. Cammi, 
 J. W. Ochterski, R. L. Martin, K. Morokuma, O. Farkas, 
 J. B. Foresman, and D. J. Fox, Gaussian, Inc., Wallingford CT, 2016.
 
 ******************************************
 Gaussian 16:  AM64L-G16RevA.03 25-Dec-2016
                 7-Dec-2021 
 ******************************************
 %Mem=512GB
 %NProcShared=128
 Will use up to  128 processors via shared memory.
 %Chk=MAA1-AS1-1.chk
 ---------------------------------------------------------------------
 #n B3LYP/6-311++G(d,p) Opt freq EmpiricalDispersion=GD3BJ IOp(6/33=2)
 ---------------------------------------------------------------------
 1/18=20,19=15,26=3,38=1/1,3;
 2/9=110,12=2,17=6,18=5,40=1/2;
 3/5=4,6=6,7=1111,11=2,25=1,30=1,71=1,74=-5,124=41/1,2,3;
 4//1;
 5/5=2,38=5/2;
 6/7=2,8=2,9=2,10=2,28=1,33=2/1;
 7//1,2,3,16;
 1/18=20,19=15,26=3/3(2);
 2/9=110/2;
 99//99;
 2/9=110/2;
 3/5=4,6=6,7=1111,11=2,25=1,30=1,71=1,74=-5,124=41/1,2,3;
 4/5=5,16=3,69=1/1;
 5/5=2,38=5/2;
 7//1,2,3,16;
 1/18=20,19=15,26=3/3(-5);
 2/9=110/2;
 6/7=2,8=2,9=2,10=2,19=2,28=1,33=2/1;
 99/9=1/99;
 ----------------
 MAA1-AS1 geo opt
 ----------------
 Symbolic Z-matrix:
 Charge =  0 Multiplicity = 1
 C                     21.246    5.001     2.316 
 C                     19.872    5.601     2.249 
 C                     19.47     6.59      3.153 
 C                     19.064    5.201     1.105 
 O                     17.828    4.992     1.189 
 O                     19.677    4.935    -0.112 
 H                     21.185    3.953     2.021 
 H                     21.735    5.114     3.284 
 H                     21.941    5.474     1.622 
 H                     20.155    6.864     3.941 
 H                     18.515    7.085     3.055 
 H                     20.608    5.094    -0.145 
 C                     24.652    3.84      2.639 
 C                     24.927    4.688     1.638 
 C                     24.26     4.633     0.37 
 C                     24.661    5.58     -0.627 
 C                     24.161    5.527    -1.965 
 C                     23.206    4.567    -2.353 
 C                     22.739    3.661    -1.327 
 C                     23.29     3.712     0.004 
 N                     22.755    4.487    -3.6 
 H                     25.171    3.818     3.586 
 H                     23.952    3.021     2.709 
 H                     25.639    5.467     1.868 
 H                     25.538    6.186    -0.455 
 H                     24.658    6.161    -2.685 
 H                     22.09     2.857    -1.641 
 H                     22.958    3.034     0.776 
 H                     22.998    5.221    -4.249 
 H                     21.844    4.144    -3.872 
 
 Add virtual bond connecting atoms H28        and H7         Dist= 4.45D+00.

 GradGradGradGradGradGradGradGradGradGradGradGradGradGradGradGradGradGrad
 Berny optimization.
 Initialization pass.
                           ----------------------------
                           !    Initial Parameters    !
                           ! (Angstroms and Degrees)  !
 --------------------------                            --------------------------
 ! Name  Definition              Value          Derivative Info.                !
 --------------------------------------------------------------------------------
 ! R1    R(1,2)                  1.5008         estimate D2E/DX2                !
 ! R2    R(1,7)                  1.0904         estimate D2E/DX2                !
 ! R3    R(1,8)                  1.0904         estimate D2E/DX2                !
 ! R4    R(1,9)                  1.0901         estimate D2E/DX2                !
 ! R5    R(2,3)                  1.3989         estimate D2E/DX2                !
 ! R6    R(2,4)                  1.4566         estimate D2E/DX2                !
 ! R7    R(3,10)                 1.0795         estimate D2E/DX2                !
 ! R8    R(3,11)                 1.0801         estimate D2E/DX2                !
 ! R9    R(4,5)                  1.2564         estimate D2E/DX2                !
 ! R10   R(4,6)                  1.3884         estimate D2E/DX2                !
 ! R11   R(6,12)                 0.9451         estimate D2E/DX2                !
 ! R12   R(7,28)                 2.3533         estimate D2E/DX2                !
 ! R13   R(13,14)                1.3404         estimate D2E/DX2                !
 ! R14   R(13,22)                1.0801         estimate D2E/DX2                !
 ! R15   R(13,23)                1.0797         estimate D2E/DX2                !
 ! R16   R(14,15)                1.4338         estimate D2E/DX2                !
 ! R17   R(14,24)                1.0801         estimate D2E/DX2                !
 ! R18   R(15,16)                1.4323         estimate D2E/DX2                !
 ! R19   R(15,20)                1.3868         estimate D2E/DX2                !
 ! R20   R(16,17)                1.4294         estimate D2E/DX2                !
 ! R21   R(16,25)                1.0798         estimate D2E/DX2                !
 ! R22   R(17,18)                1.4086         estimate D2E/DX2                !
 ! R23   R(17,26)                1.0804         estimate D2E/DX2                !
 ! R24   R(18,19)                1.4462         estimate D2E/DX2                !
 ! R25   R(18,21)                1.3285         estimate D2E/DX2                !
 ! R26   R(19,20)                1.4414         estimate D2E/DX2                !
 ! R27   R(19,27)                1.0799         estimate D2E/DX2                !
 ! R28   R(20,28)                1.0798         estimate D2E/DX2                !
 ! R29   R(21,29)                1.0095         estimate D2E/DX2                !
 ! R30   R(21,30)                1.0107         estimate D2E/DX2                !
 ! A1    A(2,1,7)              108.7197         estimate D2E/DX2                !
 ! A2    A(2,1,8)              114.1285         estimate D2E/DX2                !
 ! A3    A(2,1,9)              112.4446         estimate D2E/DX2                !
 ! A4    A(7,1,8)              111.399          estimate D2E/DX2                !
 ! A5    A(7,1,9)              106.2867         estimate D2E/DX2                !
 ! A6    A(8,1,9)              103.5497         estimate D2E/DX2                !
 ! A7    A(1,2,3)              121.1235         estimate D2E/DX2                !
 ! A8    A(1,2,4)              115.6668         estimate D2E/DX2                !
 ! A9    A(3,2,4)              122.8392         estimate D2E/DX2                !
 ! A10   A(2,3,10)             117.9584         estimate D2E/DX2                !
 ! A11   A(2,3,11)             121.295          estimate D2E/DX2                !
 ! A12   A(10,3,11)            120.7287         estimate D2E/DX2                !
 ! A13   A(2,4,5)              122.6095         estimate D2E/DX2                !
 ! A14   A(2,4,6)              119.7452         estimate D2E/DX2                !
 ! A15   A(5,4,6)              117.4582         estimate D2E/DX2                !
 ! A16   A(4,6,12)             115.6789         estimate D2E/DX2                !
 ! A17   A(1,7,28)             118.4435         estimate D2E/DX2                !
 ! A18   A(14,13,22)           124.684          estimate D2E/DX2                !
 ! A19   A(14,13,23)           131.4018         estimate D2E/DX2                !
 ! A20   A(22,13,23)           103.8417         estimate D2E/DX2                !
 ! A21   A(13,14,15)           122.7329         estimate D2E/DX2                !
 ! A22   A(13,14,24)           115.6252         estimate D2E/DX2                !
 ! A23   A(15,14,24)           121.509          estimate D2E/DX2                !
 ! A24   A(14,15,16)           117.3856         estimate D2E/DX2                !
 ! A25   A(14,15,20)           125.7522         estimate D2E/DX2                !
 ! A26   A(16,15,20)           116.8216         estimate D2E/DX2                !
 ! A27   A(15,16,17)           121.9464         estimate D2E/DX2                !
 ! A28   A(15,16,25)           119.1802         estimate D2E/DX2                !
 ! A29   A(17,16,25)           117.0026         estimate D2E/DX2                !
 ! A30   A(16,17,18)           121.3509         estimate D2E/DX2                !
 ! A31   A(16,17,26)           116.1761         estimate D2E/DX2                !
 ! A32   A(18,17,26)           121.8855         estimate D2E/DX2                !
 ! A33   A(17,18,19)           116.7729         estimate D2E/DX2                !
 ! A34   A(17,18,21)           121.9897         estimate D2E/DX2                !
 ! A35   A(19,18,21)           121.2368         estimate D2E/DX2                !
 ! A36   A(18,19,20)           120.6287         estimate D2E/DX2                !
 ! A37   A(18,19,27)           117.0122         estimate D2E/DX2                !
 ! A38   A(20,19,27)           121.6381         estimate D2E/DX2                !
 ! A39   A(15,20,19)           122.3153         estimate D2E/DX2                !
 ! A40   A(15,20,28)           116.3206         estimate D2E/DX2                !
 ! A41   A(19,20,28)           121.3617         estimate D2E/DX2                !
 ! A42   A(18,21,29)           118.5539         estimate D2E/DX2                !
 ! A43   A(18,21,30)           125.3834         estimate D2E/DX2                !
 ! A44   A(29,21,30)           106.9006         estimate D2E/DX2                !
 ! A45   A(7,28,20)            111.3886         estimate D2E/DX2                !
 ! D1    D(7,1,2,3)            146.0214         estimate D2E/DX2                !
 ! D2    D(7,1,2,4)            -40.7748         estimate D2E/DX2                !
 ! D3    D(8,1,2,3)             20.9984         estimate D2E/DX2                !
 ! D4    D(8,1,2,4)           -165.7977         estimate D2E/DX2                !
 ! D5    D(9,1,2,3)            -96.5686         estimate D2E/DX2                !
 ! D6    D(9,1,2,4)             76.6353         estimate D2E/DX2                !
 ! D7    D(2,1,7,28)           143.4965         estimate D2E/DX2                !
 ! D8    D(8,1,7,28)           -89.8934         estimate D2E/DX2                !
 ! D9    D(9,1,7,28)            22.233          estimate D2E/DX2                !
 ! D10   D(1,2,3,10)            -3.8844         estimate D2E/DX2                !
 ! D11   D(1,2,3,11)           174.5888         estimate D2E/DX2                !
 ! D12   D(4,2,3,10)          -176.5911         estimate D2E/DX2                !
 ! D13   D(4,2,3,11)             1.8821         estimate D2E/DX2                !
 ! D14   D(1,2,4,5)            141.936          estimate D2E/DX2                !
 ! D15   D(1,2,4,6)            -32.9645         estimate D2E/DX2                !
 ! D16   D(3,2,4,5)            -44.9891         estimate D2E/DX2                !
 ! D17   D(3,2,4,6)            140.1104         estimate D2E/DX2                !
 ! D18   D(2,4,6,12)            -4.3386         estimate D2E/DX2                !
 ! D19   D(5,4,6,12)          -179.4982         estimate D2E/DX2                !
 ! D20   D(1,7,28,20)          -42.7764         estimate D2E/DX2                !
 ! D21   D(22,13,14,15)        176.4992         estimate D2E/DX2                !
 ! D22   D(22,13,14,24)         -7.6375         estimate D2E/DX2                !
 ! D23   D(23,13,14,15)          0.1158         estimate D2E/DX2                !
 ! D24   D(23,13,14,24)        175.9792         estimate D2E/DX2                !
 ! D25   D(13,14,15,16)       -178.8965         estimate D2E/DX2                !
 ! D26   D(13,14,15,20)         -1.2958         estimate D2E/DX2                !
 ! D27   D(24,14,15,16)          5.4788         estimate D2E/DX2                !
 ! D28   D(24,14,15,20)       -176.9205         estimate D2E/DX2                !
 ! D29   D(14,15,16,17)        173.5093         estimate D2E/DX2                !
 ! D30   D(14,15,16,25)          9.5499         estimate D2E/DX2                !
 ! D31   D(20,15,16,17)         -4.309          estimate D2E/DX2                !
 ! D32   D(20,15,16,25)       -168.2683         estimate D2E/DX2                !
 ! D33   D(14,15,20,19)       -175.1987         estimate D2E/DX2                !
 ! D34   D(14,15,20,28)          5.3531         estimate D2E/DX2                !
 ! D35   D(16,15,20,19)          2.4141         estimate D2E/DX2                !
 ! D36   D(16,15,20,28)       -177.0341         estimate D2E/DX2                !
 ! D37   D(15,16,17,18)          2.5073         estimate D2E/DX2                !
 ! D38   D(15,16,17,26)       -168.8618         estimate D2E/DX2                !
 ! D39   D(25,16,17,18)        166.7972         estimate D2E/DX2                !
 ! D40   D(25,16,17,26)         -4.5718         estimate D2E/DX2                !
 ! D41   D(16,17,18,19)          1.2617         estimate D2E/DX2                !
 ! D42   D(16,17,18,21)       -178.4584         estimate D2E/DX2                !
 ! D43   D(26,17,18,19)        172.1353         estimate D2E/DX2                !
 ! D44   D(26,17,18,21)         -7.5848         estimate D2E/DX2                !
 ! D45   D(17,18,19,20)         -3.1073         estimate D2E/DX2                !
 ! D46   D(17,18,19,27)       -173.5361         estimate D2E/DX2                !
 ! D47   D(21,18,19,20)        176.615          estimate D2E/DX2                !
 ! D48   D(21,18,19,27)          6.1862         estimate D2E/DX2                !
 ! D49   D(17,18,21,29)         -9.4438         estimate D2E/DX2                !
 ! D50   D(17,18,21,30)       -151.8575         estimate D2E/DX2                !
 ! D51   D(19,18,21,29)        170.8485         estimate D2E/DX2                !
 ! D52   D(19,18,21,30)         28.4348         estimate D2E/DX2                !
 ! D53   D(18,19,20,15)          1.2719         estimate D2E/DX2                !
 ! D54   D(18,19,20,28)       -179.3074         estimate D2E/DX2                !
 ! D55   D(27,19,20,15)        171.2518         estimate D2E/DX2                !
 ! D56   D(27,19,20,28)         -9.3274         estimate D2E/DX2                !
 ! D57   D(15,20,28,7)          87.686          estimate D2E/DX2                !
 ! D58   D(19,20,28,7)         -91.7679         estimate D2E/DX2                !
 --------------------------------------------------------------------------------
 Trust Radius=3.00D-01 FncErr=1.00D-07 GrdErr=1.00D-06 EigMax=2.50D+02 EigMin=1.00D-04
 Number of steps in this run=    143 maximum allowed number of steps=    180.
 GradGradGradGradGradGradGradGradGradGradGradGradGradGradGradGradGradGrad

                          Input orientation:                          
 ---------------------------------------------------------------------
 Center     Atomic      Atomic             Coordinates (Angstroms)
 Number     Number       Type             X           Y           Z
 ---------------------------------------------------------------------
      1          6           0       21.246000    5.001000    2.316000
      2          6           0       19.872000    5.601000    2.249000
      3          6           0       19.470000    6.590000    3.153000
      4          6           0       19.064000    5.201000    1.105000
      5          8           0       17.828000    4.992000    1.189000
      6          8           0       19.677000    4.935000   -0.112000
      7          1           0       21.185000    3.953000    2.021000
      8          1           0       21.735000    5.114000    3.284000
      9          1           0       21.941000    5.474000    1.622000
     10          1           0       20.155000    6.864000    3.941000
     11          1           0       18.515000    7.085000    3.055000
     12          1           0       20.608000    5.094000   -0.145000
     13          6           0       24.652000    3.840000    2.639000
     14          6           0       24.927000    4.688000    1.638000
     15          6           0       24.260000    4.633000    0.370000
     16          6           0       24.661000    5.580000   -0.627000
     17          6           0       24.161000    5.527000   -1.965000
     18          6           0       23.206000    4.567000   -2.353000
     19          6           0       22.739000    3.661000   -1.327000
     20          6           0       23.290000    3.712000    0.004000
     21          7           0       22.755000    4.487000   -3.600000
     22          1           0       25.171000    3.818000    3.586000
     23          1           0       23.952000    3.021000    2.709000
     24          1           0       25.639000    5.467000    1.868000
     25          1           0       25.538000    6.186000   -0.455000
     26          1           0       24.658000    6.161000   -2.685000
     27          1           0       22.090000    2.857000   -1.641000
     28          1           0       22.958000    3.034000    0.776000
     29          1           0       22.998000    5.221000   -4.249000
     30          1           0       21.844000    4.144000   -3.872000
 ---------------------------------------------------------------------
                    Distance matrix (angstroms):
                    1          2          3          4          5
     1  C    0.000000
     2  C    1.500788   0.000000
     3  C    2.525800   1.398907   0.000000
     4  C    2.503527   1.456571   2.507680   0.000000
     5  O    3.599018   2.381684   3.017791   1.256357   0.000000
     6  O    2.891591   2.460874   3.666347   1.388385   2.261559
     7  H    1.090436   2.119400   3.343115   2.625871   3.611259
     8  H    1.090373   2.186130   2.706651   3.448166   4.434925
     9  H    1.090133   2.165645   3.113721   2.935804   4.163722
    10  H    2.702161   2.130287   1.079465   3.463921   4.061135
    11  H    3.513906   2.166412   1.080118   2.766470   2.886966
    12  H    2.544055   2.555383   3.796033   1.989443   3.085184
    13  C    3.612905   5.108975   5.888957   5.952413   7.070826
    14  C    3.755984   5.172999   5.974251   5.909486   7.119678
    15  C    3.606458   4.870545   5.875290   5.278377   6.493864
    16  C    4.545186   5.586263   6.500383   5.871105   7.094610
    17  C    5.205849   6.013218   7.023487   5.959076   7.095127
    18  C    5.082275   5.776081   6.954586   5.432852   6.453625
    19  C    4.158858   4.977054   6.271826   4.668174   5.676243
    20  C    3.344369   4.504561   5.726385   4.613935   5.733766
    21  N    6.127017   6.615398   7.798515   6.022483   6.889476
    22  H    4.291621   5.748570   6.353965   6.735243   7.813036
    23  H    3.375987   4.849165   5.746583   5.587286   6.610493
    24  H    4.440305   5.781125   6.400696   6.624466   7.854832
    25  H    5.244419   6.305347   7.071174   6.731753   7.973235
    26  H    6.164199   6.896648   7.821869   6.824847   7.938724
    27  H    4.578965   5.251777   6.616806   4.710788   5.543624
    28  H    3.028470   4.275817   5.519186   4.468486   5.506472
    29  H    6.798318   7.220823   8.313275   6.643950   7.506876
    30  H    6.275619   6.593806   7.808292   5.797946   6.516217
                    6          7          8          9         10
     6  O    0.000000
     7  H    2.790713   0.000000
     8  H    3.974949   1.801552   0.000000
     9  H    2.902236   1.744757   1.712974   0.000000
    10  H    4.514015   3.636100   2.447560   3.240317   0.000000
    11  H    4.000329   4.243522   3.782285   4.047998   1.877082
    12  H    0.945056   2.515227   3.609511   2.245791   4.475880
    13  C    5.789443   3.523462   3.247767   3.324720   5.573400
    14  C    5.539495   3.832685   3.616581   3.087758   5.728069
    15  C    4.618162   3.555816   3.885664   2.766324   5.880512
    16  C    5.051881   4.662790   4.906583   3.530954   6.543647
    17  C    4.887773   5.217494   5.797245   4.218741   7.260609
    18  C    4.196587   4.857295   5.851395   4.268899   7.362014
    19  C    3.532017   3.702605   4.937666   3.552517   6.684915
    20  C    3.816144   2.925303   3.891276   2.746337   5.938291
    21  N    4.673428   5.860520   6.987345   5.376435   8.323269
    22  H    6.716169   4.284349   3.684687   4.127049   5.879149
    23  H    5.467821   2.999709   3.102638   3.353043   5.541090
    24  H    6.304670   4.706774   4.167839   3.706180   6.026873
    25  H    6.002830   5.483199   5.439863   4.214176   6.982921
    26  H    5.738795   6.251674   6.728231   5.138512   8.042083
    27  H    3.532491   3.928166   5.429153   4.185458   7.138557
    28  H    3.894523   2.353320   3.480258   2.775537   5.704641
    29  H    5.312778   6.648887   7.638894   5.970754   8.823729
    30  H    4.411255   5.932808   7.222265   5.653525   8.443583
                   11         12         13         14         15
    11  H    0.000000
    12  H    4.311001   0.000000
    13  C    6.954556   5.067258   0.000000
    14  C    6.990511   4.690169   1.340422   0.000000
    15  C    6.799011   3.716833   2.435339   1.433785   0.000000
    16  C    7.320892   4.110393   3.700600   2.448805   1.432347
    17  C    7.713954   4.015432   4.927866   3.777868   2.502251
    18  C    7.588957   3.450014   5.247810   4.347938   2.920617
    19  C    6.983400   2.826973   4.406900   3.825349   2.477506
    20  C    6.594418   3.020803   2.968948   2.510438   1.386758
    21  N    8.307601   4.112795   6.553040   5.674031   4.248204
    22  H    7.433545   6.030714   1.080118   2.147357   3.440465
    23  H    6.796821   4.860554   1.079658   2.208292   2.857329
    24  H    7.401234   5.431598   2.053226   1.080132   2.200273
    25  H    7.902584   5.058998   3.982656   2.645368   2.173872
    26  H    8.458004   4.898223   5.807930   4.574977   3.438926
    27  H    7.260098   3.072216   5.084145   4.706694   3.450681
    28  H    6.429984   3.257966   2.643869   2.712143   2.101628
    29  H    8.770416   4.750899   7.217162   6.217869   4.824267
    30  H    8.228916   4.039892   7.097211   6.337265   4.906194
                   16         17         18         19         20
    16  C    0.000000
    17  C    1.429354   0.000000
    18  C    2.474322   1.408605   0.000000
    19  C    2.804754   2.431272   1.446237   0.000000
    20  C    2.401505   2.815995   2.508691   1.441445   0.000000
    21  N    3.696784   2.394089   1.328462   2.418483   3.725006
    22  H    4.595010   5.895285   6.300313   5.484236   4.047236
    23  H    4.263808   5.307541   5.345136   4.262659   2.869277
    24  H    2.682215   4.108524   4.954425   4.677570   3.474525
    25  H    1.079791   2.147210   3.414936   3.869161   3.374146
    26  H    2.138442   1.080447   2.181597   3.431723   3.885839
    27  H    3.879815   3.394542   2.162522   1.079913   2.208404
    28  H    3.369085   3.895554   3.493170   2.205380   1.079765
    29  H    4.001666   2.581252   2.016382   3.322464   4.522207
    30  H    4.530741   3.304214   2.083587   2.740682   4.159437
                   21         22         23         24         25
    21  N    0.000000
    22  H    7.610730   0.000000
    23  H    6.586763   1.700088   0.000000
    24  H    6.259144   2.426881   3.088068   0.000000
    25  H    4.530200   4.698063   4.748001   2.433822   0.000000
    26  H    2.694608   6.714034   6.281184   4.708907   2.397483
    27  H    2.633782   6.143095   4.734600   5.632103   4.937362
    28  H    4.615387   3.661711   2.173636   3.781496   4.255216
    29  H    1.009458   8.250913   7.359611   6.667315   4.666611
    30  H    1.010720   8.172941   7.001025   7.007136   5.430588
                   26         27         28         29         30
    26  H    0.000000
    27  H    4.312885   0.000000
    28  H    4.964539   2.574226   0.000000
    29  H    2.466839   3.635192   5.480437   0.000000
    30  H    3.660035   2.587324   4.906832   1.622891   0.000000
 Stoichiometry    C12H15NO2
 Framework group  C1[X(C12H15NO2)]
 Deg. of freedom    84
 Full point group                 C1      NOp   1
 Largest Abelian subgroup         C1      NOp   1
 Largest concise Abelian subgroup C1      NOp   1
                         Standard orientation:                         
 ---------------------------------------------------------------------
 Center     Atomic      Atomic             Coordinates (Angstroms)
 Number     Number       Type             X           Y           Z
 ---------------------------------------------------------------------
      1          6           0        1.780997    1.203193   -0.116278
      2          6           0        2.965149    0.385237    0.309276
      3          6           0        3.932664    0.908792    1.173421
      4          6           0        2.950417   -1.010406   -0.107333
      5          8           0        3.986560   -1.618030   -0.475617
      6          8           0        1.742016   -1.686700   -0.207369
      7          1           0        1.519515    0.934089   -1.140124
      8          1           0        1.921735    2.279344   -0.011363
      9          1           0        0.896658    1.001124    0.488291
     10          1           0        3.836556    1.940797    1.475040
     11          1           0        4.738872    0.296521    1.549992
     12          1           0        0.978299   -1.203754    0.069454
     13          6           0       -1.021791    3.358489   -0.859355
     14          6           0       -1.672912    2.665163    0.085140
     15          6           0       -1.822038    1.239987    0.036428
     16          6           0       -2.560745    0.618294    1.094459
     17          6           0       -2.885647   -0.773489    1.073691
     18          6           0       -2.447147   -1.612943    0.031000
     19          6           0       -1.632227   -1.003762   -0.996816
     20          6           0       -1.353536    0.410251   -0.971114
     21          7           0       -2.766737   -2.901505   -0.016754
     22          1           0       -0.936715    4.434996   -0.882767
     23          1           0       -0.523612    3.040305   -1.762814
     24          1           0       -2.023068    3.240871    0.929318
     25          1           0       -3.103672    1.238117    1.792312
     26          1           0       -3.597531   -1.107845    1.814496
     27          1           0       -1.383515   -1.614700   -1.851866
     28          1           0       -0.755833    0.879248   -1.738371
     29          1           0       -3.215790   -3.317327    0.786022
     30          1           0       -2.212439   -3.626242   -0.451570
 ---------------------------------------------------------------------
 Rotational constants (GHZ):           0.6904529           0.3526054           0.2591457
 Standard basis: 6-311++G(d,p) (5D, 7F)
 There are   450 symmetry adapted cartesian basis functions of A   symmetry.
 There are   435 symmetry adapted basis functions of A   symmetry.
   435 basis functions,   675 primitive gaussians,   450 cartesian basis functions
    55 alpha electrons       55 beta electrons
       nuclear repulsion energy       917.8513864999 Hartrees.
 NAtoms=   30 NActive=   30 NUniq=   30 SFac= 1.00D+00 NAtFMM=   60 NAOKFM=F Big=F
 Integral buffers will be    131072 words long.
 Raffenetti 2 integral format.
 Two-electron integral symmetry is turned on.
 Nuclear repulsion after empirical dispersion term =      917.7966869033 Hartrees.
 One-electron integrals computed using PRISM.
 NBasis=   435 RedAO= T EigKep=  1.50D-06  NBF=   435
 NBsUse=   434 1.00D-06 EigRej=  6.90D-07 NBFU=   434
 ExpMin= 3.60D-02 ExpMax= 8.59D+03 ExpMxC= 1.30D+03 IAcc=3 IRadAn=         5 AccDes= 0.00D+00
 Harris functional with IExCor=  402 and IRadAn=       5 diagonalized for initial guess.
 HarFok:  IExCor=  402 AccDes= 0.00D+00 IRadAn=         5 IDoV= 1 UseB2=F ITyADJ=14
 ICtDFT=  3500011 ScaDFX=  1.000000  1.000000  1.000000  1.000000
 FoFCou: FMM=F IPFlag=           0 FMFlag=      100000 FMFlg1=           0
         NFxFlg=           0 DoJE=T BraDBF=F KetDBF=T FulRan=T
         wScrn=  0.000000 ICntrl=       500 IOpCl=  0 I1Cent=   200000004 NGrid=           0
         NMat0=    1 NMatS0=      1 NMatT0=    0 NMatD0=    1 NMtDS0=    0 NMtDT0=    0
 Petite list used in FoFCou.
 Requested convergence on RMS density matrix=1.00D-08 within 128 cycles.
 Requested convergence on MAX density matrix=1.00D-06.
 Requested convergence on             energy=1.00D-06.
 No special actions if energy rises.
 SCF Done:  E(RB3LYP) =  -671.697212309     A.U. after   16 cycles
            NFock= 16  Conv=0.33D-08     -V/T= 2.0048
 SCF density gives NOpUse=  1 NOpAll=  1.

 **********************************************************************

            Population analysis using the SCF density.

 **********************************************************************

 Orbital symmetries:
 BldTbl:  Degeneracy threshold= 1.00D-02
       Occupied  (A) (A) (A) (A) (A) (A) (A) (A) (A) (A) (A) (A)
                 (A) (A) (A) (A) (A) (A) (A) (A) (A) (A) (A) (A)
                 (A) (A) (A) (A) (A) (A) (A) (A) (A) (A) (A) (A)
                 (A) (A) (A) (A) (A) (A) (A) (A) (A) (A) (A) (A)
                 (A) (A) (A) (A) (A) (A) (A)
       Virtual   (A) (A) (A) (A) (A) (A) (A) (A) (A) (A) (A) (A)
                 (A) (A) (A) (A) (A) (A) (A) (A) (A) (A) (A) (A)
                 (A) (A) (A) (A) (A) (A) (A) (A) (A) (A) (A) (A)
                 (A) (A) (A) (A) (A) (A) (A) (A) (A) (A) (A) (A)
                 (A) (A) (A) (A) (A) (A) (A) (A) (A) (A) (A) (A)
                 (A) (A) (A) (A) (A) (A) (A) (A) (A) (A) (A) (A)
                 (A) (A) (A) (A) (A) (A) (A) (A) (A) (A) (A) (A)
                 (A) (A) (A) (A) (A) (A) (A) (A) (A) (A) (A) (A)
                 (A) (A) (A) (A) (A) (A) (A) (A) (A) (A) (A) (A)
                 (A) (A) (A) (A) (A) (A) (A) (A) (A) (A) (A) (A)
                 (A) (A) (A) (A) (A) (A) (A) (A) (A) (A) (A) (A)
                 (A) (A) (A) (A) (A) (A) (A) (A) (A) (A) (A) (A)
                 (A) (A) (A) (A) (A) (A) (A) (A) (A) (A) (A) (A)
                 (A) (A) (A) (A) (A) (A) (A) (A) (A) (A) (A) (A)
                 (A) (A) (A) (A) (A) (A) (A) (A) (A) (A) (A) (A)
                 (A) (A) (A) (A) (A) (A) (A) (A) (A) (A) (A) (A)
                 (A) (A) (A) (A) (A) (A) (A) (A) (A) (A) (A) (A)
                 (A) (A) (A) (A) (A) (A) (A) (A) (A) (A) (A) (A)
                 (A) (A) (A) (A) (A) (A) (A) (A) (A) (A) (A) (A)
                 (A) (A) (A) (A) (A) (A) (A) (A) (A) (A) (A) (A)
                 (A) (A) (A) (A) (A) (A) (A) (A) (A) (A) (A) (A)
                 (A) (A) (A) (A) (A) (A) (A) (A) (A) (A) (A) (A)
                 (A) (A) (A) (A) (A) (A) (A) (A) (A) (A) (A) (A)
                 (A) (A) (A) (A) (A) (A) (A) (A) (A) (A) (A) (A)
                 (A) (A) (A) (A) (A) (A) (A) (A) (A) (A) (A) (A)
                 (A) (A) (A) (A) (A) (A) (A) (A) (A) (A) (A) (A)
                 (A) (A) (A) (A) (A) (A) (A) (A) (A) (A) (A) (A)
                 (A) (A) (A) (A) (A) (A) (A) (A) (A) (A) (A) (A)
                 (A) (A) (A) (A) (A) (A) (A) (A) (A) (A) (A) (A)
                 (A) (A) (A) (A) (A) (A) (A) (A) (A) (A) (A) (A)
                 (A) (A) (A) (A) (A) (A) (A) (A) (A) (A) (A) (A)
                 (A) (A) (A) (A) (A) (A) (A)
 The electronic state is 1-A.
 Alpha  occ. eigenvalues --  -19.16947 -19.10867 -14.34484 -10.31280 -10.23984
 Alpha  occ. eigenvalues --  -10.21433 -10.19788 -10.19396 -10.19331 -10.19279
 Alpha  occ. eigenvalues --  -10.18772 -10.18701 -10.18689 -10.18246 -10.16989
 Alpha  occ. eigenvalues --   -1.09167  -1.00308  -0.95924  -0.85922  -0.82133
 Alpha  occ. eigenvalues --   -0.79440  -0.75327  -0.72864  -0.70735  -0.66224
 Alpha  occ. eigenvalues --   -0.64318  -0.63286  -0.60454  -0.58011  -0.55192
 Alpha  occ. eigenvalues --   -0.53472  -0.50741  -0.50114  -0.47056  -0.46569
 Alpha  occ. eigenvalues --   -0.46136  -0.45410  -0.44120  -0.42831  -0.42105
 Alpha  occ. eigenvalues --   -0.41809  -0.41020  -0.40642  -0.39724  -0.39014
 Alpha  occ. eigenvalues --   -0.38007  -0.36175  -0.35722  -0.35073  -0.31988
 Alpha  occ. eigenvalues --   -0.28618  -0.28475  -0.26562  -0.26135  -0.21148
 Alpha virt. eigenvalues --   -0.06567  -0.04918  -0.03965  -0.02173  -0.01046
 Alpha virt. eigenvalues --   -0.00174   0.00487   0.00960   0.01385   0.01919
 Alpha virt. eigenvalues --    0.02480   0.02976   0.03255   0.03771   0.03982
 Alpha virt. eigenvalues --    0.04349   0.05530   0.06015   0.06743   0.06874
 Alpha virt. eigenvalues --    0.07150   0.07672   0.07947   0.08288   0.08832
 Alpha virt. eigenvalues --    0.09152   0.09604   0.10086   0.10521   0.10860
 Alpha virt. eigenvalues --    0.10976   0.11400   0.11700   0.11878   0.12141
 Alpha virt. eigenvalues --    0.12516   0.12547   0.12814   0.13441   0.13636
 Alpha virt. eigenvalues --    0.14026   0.14180   0.14426   0.14616   0.15350
 Alpha virt. eigenvalues --    0.15811   0.16192   0.16219   0.16760   0.16861
 Alpha virt. eigenvalues --    0.16877   0.17402   0.17672   0.18103   0.18289
 Alpha virt. eigenvalues --    0.18916   0.19325   0.19592   0.20164   0.20400
 Alpha virt. eigenvalues --    0.20569   0.20984   0.21236   0.21827   0.22855
 Alpha virt. eigenvalues --    0.23046   0.23175   0.23937   0.24067   0.24351
 Alpha virt. eigenvalues --    0.24716   0.25232   0.25746   0.25992   0.26640
 Alpha virt. eigenvalues --    0.26972   0.27133   0.27955   0.28450   0.28767
 Alpha virt. eigenvalues --    0.29268   0.29526   0.29817   0.30172   0.30790
 Alpha virt. eigenvalues --    0.31412   0.31813   0.32241   0.32518   0.32707
 Alpha virt. eigenvalues --    0.33319   0.33659   0.34292   0.34437   0.34880
 Alpha virt. eigenvalues --    0.36311   0.36780   0.37145   0.38089   0.39075
 Alpha virt. eigenvalues --    0.39693   0.40170   0.41219   0.42623   0.43259
 Alpha virt. eigenvalues --    0.44360   0.45218   0.47655   0.48889   0.50721
 Alpha virt. eigenvalues --    0.51136   0.52007   0.52516   0.53382   0.54605
 Alpha virt. eigenvalues --    0.55940   0.57054   0.57499   0.57957   0.58899
 Alpha virt. eigenvalues --    0.58959   0.59666   0.59887   0.60631   0.61492
 Alpha virt. eigenvalues --    0.61911   0.63351   0.64368   0.65008   0.65383
 Alpha virt. eigenvalues --    0.66084   0.66566   0.67534   0.68184   0.69028
 Alpha virt. eigenvalues --    0.69417   0.70228   0.70985   0.71645   0.72469
 Alpha virt. eigenvalues --    0.73491   0.74162   0.74805   0.75074   0.75475
 Alpha virt. eigenvalues --    0.76488   0.76739   0.77173   0.78490   0.79087
 Alpha virt. eigenvalues --    0.79661   0.81466   0.81752   0.81816   0.82967
 Alpha virt. eigenvalues --    0.84147   0.85101   0.86277   0.86728   0.87875
 Alpha virt. eigenvalues --    0.88927   0.90161   0.90848   0.91565   0.92034
 Alpha virt. eigenvalues --    0.93181   0.93791   0.95597   0.96049   0.97246
 Alpha virt. eigenvalues --    0.97562   1.00274   1.01516   1.02219   1.03760
 Alpha virt. eigenvalues --    1.06598   1.07156   1.07396   1.08704   1.10670
 Alpha virt. eigenvalues --    1.12123   1.13196   1.13893   1.14716   1.16366
 Alpha virt. eigenvalues --    1.17973   1.18653   1.19605   1.21272   1.23840
 Alpha virt. eigenvalues --    1.25189   1.27345   1.31801   1.32295   1.34109
 Alpha virt. eigenvalues --    1.37796   1.40773   1.41369   1.43540   1.44870
 Alpha virt. eigenvalues --    1.45679   1.46766   1.47751   1.48910   1.49493
 Alpha virt. eigenvalues --    1.50895   1.51806   1.52703   1.53919   1.55518
 Alpha virt. eigenvalues --    1.55919   1.56850   1.58475   1.59914   1.60904
 Alpha virt. eigenvalues --    1.61030   1.61300   1.62437   1.64341   1.64864
 Alpha virt. eigenvalues --    1.65586   1.66801   1.68110   1.69306   1.70028
 Alpha virt. eigenvalues --    1.70774   1.71390   1.72509   1.73951   1.76203
 Alpha virt. eigenvalues --    1.76762   1.78114   1.79591   1.82260   1.82762
 Alpha virt. eigenvalues --    1.83247   1.84451   1.85434   1.87115   1.87894
 Alpha virt. eigenvalues --    1.88647   1.89958   1.90442   1.91107   1.92303
 Alpha virt. eigenvalues --    1.93466   1.94390   1.97909   2.00169   2.01240
 Alpha virt. eigenvalues --    2.02117   2.03002   2.04907   2.08208   2.10270
 Alpha virt. eigenvalues --    2.11032   2.11654   2.12698   2.14244   2.15468
 Alpha virt. eigenvalues --    2.15911   2.19550   2.20229   2.23446   2.25953
 Alpha virt. eigenvalues --    2.27729   2.30041   2.31127   2.32601   2.34669
 Alpha virt. eigenvalues --    2.40327   2.42462   2.43952   2.45119   2.47598
 Alpha virt. eigenvalues --    2.49548   2.50732   2.53594   2.54562   2.55703
 Alpha virt. eigenvalues --    2.57792   2.58966   2.59015   2.60201   2.60501
 Alpha virt. eigenvalues --    2.62009   2.64693   2.64880   2.66373   2.68990
 Alpha virt. eigenvalues --    2.70201   2.71044   2.72266   2.72826   2.73833
 Alpha virt. eigenvalues --    2.75347   2.75450   2.75821   2.77080   2.78706
 Alpha virt. eigenvalues --    2.80417   2.81673   2.82849   2.84344   2.85900
 Alpha virt. eigenvalues --    2.86321   2.86629   2.88363   2.89348   2.89919
 Alpha virt. eigenvalues --    2.91880   2.92296   2.94076   2.95932   2.96686
 Alpha virt. eigenvalues --    2.98044   2.98924   3.01938   3.04032   3.06647
 Alpha virt. eigenvalues --    3.09142   3.10882   3.14250   3.18367   3.20918
 Alpha virt. eigenvalues --    3.27055   3.27318   3.30707   3.32822   3.34142
 Alpha virt. eigenvalues --    3.37622   3.42002   3.45789   3.46590   3.50182
 Alpha virt. eigenvalues --    3.50555   3.51877   3.54446   3.68851   3.70994
 Alpha virt. eigenvalues --    3.76128   3.77227   3.79641   3.86290   3.86943
 Alpha virt. eigenvalues --    3.93262   3.97768   3.99394   4.05676   4.08021
 Alpha virt. eigenvalues --    4.13467   4.17172   4.24241   4.31299   4.49063
 Alpha virt. eigenvalues --    4.69749   4.76292   5.01097   5.06048   5.07338
 Alpha virt. eigenvalues --    5.16564   5.34455   5.58761   5.86315  23.65356
 Alpha virt. eigenvalues --   23.69820  23.81960  23.85150  23.91574  23.95715
 Alpha virt. eigenvalues --   23.96566  23.97163  24.04033  24.04527  24.10599
 Alpha virt. eigenvalues --   24.26559  35.67540  49.87573  49.97243
          Condensed to atoms (all electrons):
               1          2          3          4          5          6
     1  C   10.433566  -3.721532  -1.021915  -0.021402   0.027941   0.429711
     2  C   -3.721532   9.198397   0.470254  -0.500324  -0.136925  -0.368069
     3  C   -1.021915   0.470254   6.521165  -0.350031  -0.037711  -0.021601
     4  C   -0.021402  -0.500324  -0.350031   6.961827   0.458959  -0.064120
     5  O    0.027941  -0.136925  -0.037711   0.458959   8.018130  -0.095692
     6  O    0.429711  -0.368069  -0.021601  -0.064120  -0.095692   8.094155
     7  H    0.249450   0.115250   0.002036  -0.028560  -0.003302  -0.011517
     8  H    0.497302  -0.178929  -0.043566   0.060236   0.001616   0.006280
     9  H    0.314811  -0.025017   0.046084   0.023708  -0.005474  -0.035015
    10  H   -0.002511  -0.042076   0.398022  -0.002516  -0.002575  -0.004088
    11  H    0.015821   0.002423   0.343689  -0.009988  -0.003291   0.004527
    12  H   -0.199850   0.185942   0.062219  -0.117938   0.024537   0.212332
    13  C    0.141198  -0.156298  -0.016616   0.006983  -0.000315   0.002008
    14  C   -0.158897   0.166146   0.033052  -0.053787   0.002047  -0.000956
    15  C   -0.105352   0.067312   0.009628  -0.023945  -0.003562  -0.034000
    16  C   -0.029667   0.011738  -0.011562   0.023996  -0.001478   0.009160
    17  C    0.051726  -0.042924  -0.006618   0.004588   0.000560  -0.003679
    18  C   -0.215087   0.227759   0.026609  -0.082700   0.000995  -0.028976
    19  C    0.077162  -0.052848  -0.014764   0.033503   0.002335   0.045313
    20  C    0.236299  -0.238792  -0.025629   0.095656  -0.001104   0.035746
    21  N    0.003202  -0.003672   0.000070  -0.004718   0.000110   0.000149
    22  H    0.000872  -0.003794   0.000491  -0.001027   0.000025   0.000043
    23  H    0.023165  -0.019290  -0.002469   0.005815  -0.000270   0.000308
    24  H    0.007845  -0.008029  -0.000528   0.000209   0.000027   0.000147
    25  H   -0.002015   0.004002   0.000343  -0.000842  -0.000023   0.000135
    26  H    0.003306  -0.003837  -0.000794   0.002267   0.000004  -0.000295
    27  H    0.011106  -0.014404   0.000346   0.006593  -0.000055   0.000108
    28  H   -0.026008   0.026913  -0.004406  -0.000991   0.000945   0.002223
    29  H   -0.000704   0.000929   0.000205  -0.001032   0.000009  -0.000158
    30  H   -0.000480  -0.000102  -0.000221   0.000962  -0.000032  -0.000117
               7          8          9         10         11         12
     1  C    0.249450   0.497302   0.314811  -0.002511   0.015821  -0.199850
     2  C    0.115250  -0.178929  -0.025017  -0.042076   0.002423   0.185942
     3  C    0.002036  -0.043566   0.046084   0.398022   0.343689   0.062219
     4  C   -0.028560   0.060236   0.023708  -0.002516  -0.009988  -0.117938
     5  O   -0.003302   0.001616  -0.005474  -0.002575  -0.003291   0.024537
     6  O   -0.011517   0.006280  -0.035015  -0.004088   0.004527   0.212332
     7  H    0.605065  -0.029772  -0.086798   0.004098  -0.000842   0.002202
     8  H   -0.029772   0.576376  -0.043471  -0.005675   0.000013  -0.003135
     9  H   -0.086798  -0.043471   0.622620   0.000530  -0.001516  -0.017137
    10  H    0.004098  -0.005675   0.000530   0.525779  -0.021925   0.001690
    11  H   -0.000842   0.000013  -0.001516  -0.021925   0.489149  -0.000997
    12  H    0.002202  -0.003135  -0.017137   0.001690  -0.000997   0.585177
    13  C    0.011572   0.000691  -0.002040  -0.001737   0.000104  -0.017270
    14  C   -0.018392  -0.080242   0.111856   0.001700   0.000109   0.058337
    15  C    0.063191   0.022691  -0.063125  -0.000150   0.000231  -0.023255
    16  C    0.006310  -0.004143   0.039309  -0.000911   0.000709  -0.065740
    17  C   -0.015357   0.014576  -0.005145  -0.000384  -0.000361   0.011864
    18  C    0.023299  -0.022113   0.010408   0.001344   0.000131   0.093000
    19  C   -0.025148   0.014116  -0.007365  -0.000578   0.000483  -0.057765
    20  C   -0.046576   0.060126  -0.056486  -0.000178  -0.001297  -0.042364
    21  N   -0.000570   0.000337  -0.005701   0.000007  -0.000051   0.024718
    22  H    0.001398  -0.003868   0.001668  -0.000226   0.000048  -0.000049
    23  H   -0.005423   0.001023   0.002637  -0.000045  -0.000093  -0.001995
    24  H   -0.001424   0.000497   0.000862  -0.000188  -0.000007   0.001171
    25  H    0.000503  -0.000701  -0.001136   0.000005   0.000053  -0.000681
    26  H   -0.000691   0.000651   0.001428  -0.000042  -0.000006  -0.003995
    27  H    0.002451   0.001744  -0.001835  -0.000008  -0.000080  -0.006364
    28  H   -0.013185   0.002146   0.004183   0.000133   0.000002  -0.002021
    29  H    0.000154  -0.000048  -0.000465   0.000008  -0.000005   0.002230
    30  H    0.000082  -0.000048   0.000390  -0.000005   0.000004  -0.001259
              13         14         15         16         17         18
     1  C    0.141198  -0.158897  -0.105352  -0.029667   0.051726  -0.215087
     2  C   -0.156298   0.166146   0.067312   0.011738  -0.042924   0.227759
     3  C   -0.016616   0.033052   0.009628  -0.011562  -0.006618   0.026609
     4  C    0.006983  -0.053787  -0.023945   0.023996   0.004588  -0.082700
     5  O   -0.000315   0.002047  -0.003562  -0.001478   0.000560   0.000995
     6  O    0.002008  -0.000956  -0.034000   0.009160  -0.003679  -0.028976
     7  H    0.011572  -0.018392   0.063191   0.006310  -0.015357   0.023299
     8  H    0.000691  -0.080242   0.022691  -0.004143   0.014576  -0.022113
     9  H   -0.002040   0.111856  -0.063125   0.039309  -0.005145   0.010408
    10  H   -0.001737   0.001700  -0.000150  -0.000911  -0.000384   0.001344
    11  H    0.000104   0.000109   0.000231   0.000709  -0.000361   0.000131
    12  H   -0.017270   0.058337  -0.023255  -0.065740   0.011864   0.093000
    13  C    6.628788  -1.759346   1.735475   0.004731  -0.226479  -0.021229
    14  C   -1.759346  14.674116  -7.676194  -0.568929  -0.447852   0.843452
    15  C    1.735475  -7.676194  16.766735  -1.801108   0.289445   0.117140
    16  C    0.004731  -0.568929  -1.801108  15.738867  -4.328738   0.498008
    17  C   -0.226479  -0.447852   0.289445  -4.328738  11.503021  -1.737914
    18  C   -0.021229   0.843452   0.117140   0.498008  -1.737914   8.965963
    19  C   -0.100639   0.131895  -2.128217   2.972403  -3.209052  -0.229295
    20  C   -0.396662   0.572680  -1.530088  -6.474415   3.541251  -1.598872
    21  N   -0.006915   0.001426  -0.005679  -0.033553   0.046933  -0.009294
    22  H    0.397371   0.033392  -0.050849  -0.024202   0.000691   0.003892
    23  H    0.300333   0.068574  -0.046310   0.060516  -0.015045  -0.005421
    24  H   -0.081247   0.482696  -0.149358  -0.000383   0.046770   0.001935
    25  H    0.029554   0.002131  -0.143077   0.584734  -0.224404   0.071471
    26  H    0.000351  -0.021289   0.032935  -0.129799   0.662217  -0.254044
    27  H    0.014643  -0.037522   0.059369   0.094741  -0.168032  -0.169423
    28  H   -0.049760   0.132167  -0.459324  -0.161145   0.186810  -0.023987
    29  H   -0.000227   0.002521   0.014284   0.002691  -0.057830  -0.010162
    30  H   -0.000277   0.001520   0.000910   0.002182   0.044535  -0.015530
              19         20         21         22         23         24
     1  C    0.077162   0.236299   0.003202   0.000872   0.023165   0.007845
     2  C   -0.052848  -0.238792  -0.003672  -0.003794  -0.019290  -0.008029
     3  C   -0.014764  -0.025629   0.000070   0.000491  -0.002469  -0.000528
     4  C    0.033503   0.095656  -0.004718  -0.001027   0.005815   0.000209
     5  O    0.002335  -0.001104   0.000110   0.000025  -0.000270   0.000027
     6  O    0.045313   0.035746   0.000149   0.000043   0.000308   0.000147
     7  H   -0.025148  -0.046576  -0.000570   0.001398  -0.005423  -0.001424
     8  H    0.014116   0.060126   0.000337  -0.003868   0.001023   0.000497
     9  H   -0.007365  -0.056486  -0.005701   0.001668   0.002637   0.000862
    10  H   -0.000578  -0.000178   0.000007  -0.000226  -0.000045  -0.000188
    11  H    0.000483  -0.001297  -0.000051   0.000048  -0.000093  -0.000007
    12  H   -0.057765  -0.042364   0.024718  -0.000049  -0.001995   0.001171
    13  C   -0.100639  -0.396662  -0.006915   0.397371   0.300333  -0.081247
    14  C    0.131895   0.572680   0.001426   0.033392   0.068574   0.482696
    15  C   -2.128217  -1.530088  -0.005679  -0.050849  -0.046310  -0.149358
    16  C    2.972403  -6.474415  -0.033553  -0.024202   0.060516  -0.000383
    17  C   -3.209052   3.541251   0.046933   0.000691  -0.015045   0.046770
    18  C   -0.229295  -1.598872  -0.009294   0.003892  -0.005421   0.001935
    19  C    9.324660  -0.755090  -0.181017  -0.004650  -0.002653  -0.024326
    20  C   -0.755090  12.291070   0.040251   0.026485  -0.030110   0.010960
    21  N   -0.181017   0.040251   6.713663  -0.000069  -0.000048   0.000797
    22  H   -0.004650   0.026485  -0.000069   0.532666  -0.059075  -0.015933
    23  H   -0.002653  -0.030110  -0.000048  -0.059075   0.568730   0.015879
    24  H   -0.024326   0.010960   0.000797  -0.015933   0.015879   0.539783
    25  H    0.101285  -0.107587  -0.006386  -0.001108   0.001428   0.001012
    26  H   -0.089674   0.088827  -0.014584  -0.000102  -0.000053   0.000729
    27  H    0.578467  -0.054858  -0.019486  -0.000105   0.001113  -0.000597
    28  H   -0.039003   0.667900  -0.001154  -0.002136   0.001191   0.001504
    29  H    0.028463  -0.005466   0.372581   0.000006  -0.000030   0.000098
    30  H   -0.046907   0.004758   0.367632   0.000002   0.000020  -0.000009
              25         26         27         28         29         30
     1  C   -0.002015   0.003306   0.011106  -0.026008  -0.000704  -0.000480
     2  C    0.004002  -0.003837  -0.014404   0.026913   0.000929  -0.000102
     3  C    0.000343  -0.000794   0.000346  -0.004406   0.000205  -0.000221
     4  C   -0.000842   0.002267   0.006593  -0.000991  -0.001032   0.000962
     5  O   -0.000023   0.000004  -0.000055   0.000945   0.000009  -0.000032
     6  O    0.000135  -0.000295   0.000108   0.002223  -0.000158  -0.000117
     7  H    0.000503  -0.000691   0.002451  -0.013185   0.000154   0.000082
     8  H   -0.000701   0.000651   0.001744   0.002146  -0.000048  -0.000048
     9  H   -0.001136   0.001428  -0.001835   0.004183  -0.000465   0.000390
    10  H    0.000005  -0.000042  -0.000008   0.000133   0.000008  -0.000005
    11  H    0.000053  -0.000006  -0.000080   0.000002  -0.000005   0.000004
    12  H   -0.000681  -0.003995  -0.006364  -0.002021   0.002230  -0.001259
    13  C    0.029554   0.000351   0.014643  -0.049760  -0.000227  -0.000277
    14  C    0.002131  -0.021289  -0.037522   0.132167   0.002521   0.001520
    15  C   -0.143077   0.032935   0.059369  -0.459324   0.014284   0.000910
    16  C    0.584734  -0.129799   0.094741  -0.161145   0.002691   0.002182
    17  C   -0.224404   0.662217  -0.168032   0.186810  -0.057830   0.044535
    18  C    0.071471  -0.254044  -0.169423  -0.023987  -0.010162  -0.015530
    19  C    0.101285  -0.089674   0.578467  -0.039003   0.028463  -0.046907
    20  C   -0.107587   0.088827  -0.054858   0.667900  -0.005466   0.004758
    21  N   -0.006386  -0.014584  -0.019486  -0.001154   0.372581   0.367632
    22  H   -0.001108  -0.000102  -0.000105  -0.002136   0.000006   0.000002
    23  H    0.001428  -0.000053   0.001113   0.001191  -0.000030   0.000020
    24  H    0.001012   0.000729  -0.000597   0.001504   0.000098  -0.000009
    25  H    0.565597  -0.027835   0.003822  -0.005908  -0.000158  -0.000233
    26  H   -0.027835   0.585295  -0.003895   0.005064   0.001227   0.001588
    27  H    0.003822  -0.003895   0.550587  -0.032983   0.001407  -0.002138
    28  H   -0.005908   0.005064  -0.032983   0.681942  -0.000650   0.000606
    29  H   -0.000158   0.001227   0.001407  -0.000650   0.442439  -0.045220
    30  H   -0.000233   0.001588  -0.002138   0.000606  -0.045220   0.432097
 Mulliken charges:
               1
     1  C   -1.019063
     2  C    1.039797
     3  C   -0.355782
     4  C   -0.421379
     5  O   -0.246431
     6  O   -0.174062
     7  H    0.200496
     8  H    0.155290
     9  H    0.177231
    10  H    0.152501
    11  H    0.182961
    12  H    0.296400
    13  C   -0.436746
    14  C   -0.496411
    15  C    1.064247
    16  C   -0.414325
    17  C    0.084827
    18  C   -0.461359
    19  C   -0.341096
    20  C   -0.306439
    21  N   -0.278980
    22  H    0.168143
    23  H    0.137598
    24  H    0.169109
    25  H    0.156017
    26  H    0.165047
    27  H    0.185286
    28  H    0.108934
    29  H    0.252901
    30  H    0.255289
 Sum of Mulliken charges =  -0.00000
 Mulliken charges with hydrogens summed into heavy atoms:
               1
     1  C   -0.486046
     2  C    1.039797
     3  C   -0.020320
     4  C   -0.421379
     5  O   -0.246431
     6  O    0.122338
    13  C   -0.131005
    14  C   -0.327302
    15  C    1.064247
    16  C   -0.258308
    17  C    0.249874
    18  C   -0.461359
    19  C   -0.155810
    20  C   -0.197505
    21  N    0.229210
 DipInt: DoE/N= T F RetVal/Mat= T F Init=T NMatP=  1 IDeriv=0 Min/MaxMlt=  0  4
 Entering OneElI...
 OneElI was handed 68718959517 working-precision words.
 Multipole integrals L=0 to 4 MinM= 0 MaxM= 0.
 Requested accuracy = 0.1000D-12
 ShPair: Thresh= 1.00D-13 NBox=     0 BxSize= 0.00D+00 RnKept= 1.67D+01
         NSMCal=                13695 NSMKep=               11878
 PrmmSu-InSpLW:  IPartL=    0 NPrtUS=    1 NPrtUL=    1 DoSpLW=F IThBeg=    0 IThEnd=    0 NThAct=    1.
 PrsmSu:  NPrtUS=   1 ThrOK=F IAlg=1 NPAlg=1 LenDen=           0 ISkipM=0 DoSpLW=F IThBeg=    0 IThEnd=    0.
 Prism:   IPart=     0 DynPar=F LinDyn=F Incr=         118.
 PRISM was handed 68718194306 working-precision words and 11878 shell-pairs
 IPart=  0 NShTot=       11878 NBatch=         225 AvBLen=        52.8
 PrsmSu-ThDecC:  IPartSL=    0    0 NPrtUSL=    1    1 IThBeg=    0 IThEnd=    0 CPU=   -1 GPU=   -1 NThAct=    1.
 PrSmSu:  NxtVal=            119.
 Electronic moments (au):
       -110.00000000         -1.65933872          0.47443019          0.82331028
      -2605.67183779      -1324.22679901       -301.32057598         15.26269586
          0.21222928         -1.48061501      -4849.18649776      -1188.42499313
        -73.40277211       1969.35230570       2157.02118851      -1385.72894234
        215.90792167       -219.62391141        573.51458853       -567.54290539
    -101452.96792442     -38649.33618839      -2514.96323214      -1730.35755932
       -766.69004237          6.10127811       2970.82277457       -267.76244409
         85.49108300     -24784.30833377      -7827.12271221      -3089.85426956
      -3124.67030296       -359.02956524       -413.70020158
 Electronic spatial extent (au):  <R**2>=           4231.2192
 DipInt: DoE/N= F T RetVal/Mat= T F Init=T NMatP=  1 IDeriv=0 Min/MaxMlt=  0  4
 Nuclear    moments (au):
        110.00000000          0.00000000         -0.00000000          0.00000000
       2526.46131832       1262.17741371        235.70244509          0.00000000
         -0.00000000          0.00000000       4777.28454054       1129.77529839
         65.45609336      -2031.38976419      -2120.94628094       1470.73953708
       -212.53037086        212.01140884       -558.43627966        564.25389745
      91107.90383733      34455.70024009       1386.31708258       2331.17637133
        859.74577522        455.17524272      -2989.36820607        207.14052449
        -73.09355235      22356.97553184       6156.37863510       2163.11267360
       3030.79042317        284.59835866        449.05129878
 Total      moments (au):
          0.00000000         -1.65933872          0.47443019          0.82331028
        -79.21051947        -62.04938531        -65.61813089         15.26269586
          0.21222928         -1.48061501        -71.90195722        -58.64969474
         -7.94667876        -62.03745848         36.07490757         85.01059474
          3.37755080         -7.61250257         15.07830887         -3.28900794
     -10345.06408709      -4193.63594829      -1128.64614955        600.81881201
         93.05573285        461.27652083        -18.54543150        -60.62191960
         12.39753065      -2427.33280192      -1670.74407711       -926.74159596
        -93.87987979        -74.43120657         35.35109720
 Traceless Quadrup. (au):
        -10.25117425          6.90995992          3.34121433         15.26269586
          0.21222928         -1.48061501
 Charge=              0.0000 electrons
 Dipole moment (field-independent basis, Debye):
    X=             -4.2176    Y=              1.2059    Z=              2.0926  Tot=              4.8602
 Quadrupole moment (field-independent basis, Debye-Ang):
   XX=           -106.5409   YY=            -83.4585   ZZ=            -88.2586
   XY=             20.5288   XZ=              0.2855   YZ=             -1.9915
 Traceless Quadrupole moment (field-independent basis, Debye-Ang):
   XX=            -13.7882   YY=              9.2941   ZZ=              4.4940
   XY=             20.5288   XZ=              0.2855   YZ=             -1.9915
 Octapole moment (field-independent basis, Debye-Ang**2):
  XXX=            -51.1770  YYY=            -41.7446  ZZZ=             -5.6561  XYY=            -44.1559
  XXY=             25.6767  XXZ=             60.5073  XZZ=              2.4040  YZZ=             -5.4183
  YYZ=             10.7322  XYZ=             -2.3410
 Hexadecapole moment (field-independent basis, Debye-Ang**3):
 XXXX=          -3896.4472 YYYY=          -1579.5244 ZZZZ=           -425.1023 XXXY=            226.2972
 XXXZ=             35.0493 YYYX=            173.7389 YYYZ=             -6.9851 ZZZX=            -22.8331
 ZZZY=              4.6695 XXYY=           -914.2499 XXZZ=           -629.2823 YYZZ=           -349.0553
 XXYZ=            -35.3597 YYXZ=            -28.0344 ZZXY=             13.3149
 N-N= 9.177966869033D+02 E-N=-3.399803776780D+03  KE= 6.684939668842D+02
 Entering OneElI...
 OneElI was handed 68719073052 working-precision words.
 Calculate electrostatic properties
    NBasis =   435  MinDer = 0  MaxDer = 0
    NGrid  =    30  NMatD  =   1
 Requested accuracy = 0.1000D-12
 ShPair: Thresh= 1.00D-13 NBox=     0 BxSize= 0.00D+00 RnKept= 1.67D+01
         NSMCal=                13695 NSMKep=               11069
 PrmmSu-InSpLW:  IPartL=    0 NPrtUS=  128 NPrtUL=    1 DoSpLW=F IThBeg=    0 IThEnd=  127 NThAct=  128.
 PrsmSu:  NPrtUS= 128 ThrOK=T IAlg=1 NPAlg=1 LenDen=           0 ISkipM=0 DoSpLW=F IThBeg=    0 IThEnd=  127.
 Prism:   IPart=     0 DynPar=F LinDyn=F Incr=          25.
 PRISM was handed   536648585 working-precision words and 11069 shell-pairs
 PRISM was handed   536648585 working-precision words and 11069 shell-pairs
 PRISM was handed   536648585 working-precision words and 11069 shell-pairs
 PRISM was handed   536648585 working-precision words and 11069 shell-pairs
 PRISM was handed   536648585 working-precision words and 11069 shell-pairs
 PRISM was handed   536648585 working-precision words and 11069 shell-pairs
 PRISM was handed   536648585 working-precision words and 11069 shell-pairs
 PRISM was handed   536648585 working-precision words and 11069 shell-pairs
 PRISM was handed   536648585 working-precision words and 11069 shell-pairs
 PRISM was handed   536648585 working-precision words and 11069 shell-pairs
 PRISM was handed   536648585 working-precision words and 11069 shell-pairs
 PRISM was handed   536648585 working-precision words and 11069 shell-pairs
 PRISM was handed   536648585 working-precision words and 11069 shell-pairs
 PRISM was handed   536648585 working-precision words and 11069 shell-pairs
 PRISM was handed   536648585 working-precision words and 11069 shell-pairs
 PRISM was handed   536648585 working-precision words and 11069 shell-pairs
 PRISM was handed   536648585 working-precision words and 11069 shell-pairs
 PRISM was handed   536648585 working-precision words and 11069 shell-pairs
 PRISM was handed   536648585 working-precision words and 11069 shell-pairs
 PRISM was handed   536648585 working-precision words and 11069 shell-pairs
 PRISM was handed   536648585 working-precision words and 11069 shell-pairs
 PRISM was handed   536648585 working-precision words and 11069 shell-pairs
 PRISM was handed   536648585 working-precision words and 11069 shell-pairs
 PRISM was handed   536648585 working-precision words and 11069 shell-pairs
 PRISM was handed   536648585 working-precision words and 11069 shell-pairs
 PRISM was handed   536648585 working-precision words and 11069 shell-pairs
 PRISM was handed   536648585 working-precision words and 11069 shell-pairs
 PRISM was handed   536648585 working-precision words and 11069 shell-pairs
 PRISM was handed   536648585 working-precision words and 11069 shell-pairs
 PRISM was handed   536648585 working-precision words and 11069 shell-pairs
 PRISM was handed   536648585 working-precision words and 11069 shell-pairs
 PRISM was handed   536648585 working-precision words and 11069 shell-pairs
 PRISM was handed   536648585 working-precision words and 11069 shell-pairs
 PRISM was handed   536648585 working-precision words and 11069 shell-pairs
 PRISM was handed   536648585 working-precision words and 11069 shell-pairs
 PRISM was handed   536648585 working-precision words and 11069 shell-pairs
 PRISM was handed   536648585 working-precision words and 11069 shell-pairs
 PRISM was handed   536648585 working-precision words and 11069 shell-pairs
 PRISM was handed   536648585 working-precision words and 11069 shell-pairs
 PRISM was handed   536648585 working-precision words and 11069 shell-pairs
 PRISM was handed   536648585 working-precision words and 11069 shell-pairs
 PRISM was handed   536648585 working-precision words and 11069 shell-pairs
 PRISM was handed   536648585 working-precision words and 11069 shell-pairs
 PRISM was handed   536648585 working-precision words and 11069 shell-pairs
 PRISM was handed   536648585 working-precision words and 11069 shell-pairs
 PRISM was handed   536648585 working-precision words and 11069 shell-pairs
 PRISM was handed   536648585 working-precision words and 11069 shell-pairs
 PRISM was handed   536648585 working-precision words and 11069 shell-pairs
 PRISM was handed   536648585 working-precision words and 11069 shell-pairs
 PRISM was handed   536648585 working-precision words and 11069 shell-pairs
 PRISM was handed   536648585 working-precision words and 11069 shell-pairs
 PRISM was handed   536648585 working-precision words and 11069 shell-pairs
 PRISM was handed   536648585 working-precision words and 11069 shell-pairs
 PRISM was handed   536648585 working-precision words and 11069 shell-pairs
 PRISM was handed   536648585 working-precision words and 11069 shell-pairs
 PRISM was handed   536648585 working-precision words and 11069 shell-pairs
 PRISM was handed   536648585 working-precision words and 11069 shell-pairs
 PRISM was handed   536648585 working-precision words and 11069 shell-pairs
 PRISM was handed   536648585 working-precision words and 11069 shell-pairs
 PRISM was handed   536648585 working-precision words and 11069 shell-pairs
 PRISM was handed   536648585 working-precision words and 11069 shell-pairs
 PRISM was handed   536648585 working-precision words and 11069 shell-pairs
 PRISM was handed   536648585 working-precision words and 11069 shell-pairs
 PRISM was handed   536648585 working-precision words and 11069 shell-pairs
 PRISM was handed   536648585 working-precision words and 11069 shell-pairs
 PRISM was handed   536648585 working-precision words and 11069 shell-pairs
 PRISM was handed   536648585 working-precision words and 11069 shell-pairs
 PRISM was handed   536648585 working-precision words and 11069 shell-pairs
 PRISM was handed   536648585 working-precision words and 11069 shell-pairs
 PRISM was handed   536648585 working-precision words and 11069 shell-pairs
 PRISM was handed   536648585 working-precision words and 11069 shell-pairs
 PRISM was handed   536648585 working-precision words and 11069 shell-pairs
 PRISM was handed   536648585 working-precision words and 11069 shell-pairs
 PRISM was handed   536648585 working-precision words and 11069 shell-pairs
 PRISM was handed   536648585 working-precision words and 11069 shell-pairs
 PRISM was handed   536648585 working-precision words and 11069 shell-pairs
 PRISM was handed   536648585 working-precision words and 11069 shell-pairs
 PRISM was handed   536648585 working-precision words and 11069 shell-pairs
 PRISM was handed   536648585 working-precision words and 11069 shell-pairs
 PRISM was handed   536648585 working-precision words and 11069 shell-pairs
 PRISM was handed   536648585 working-precision words and 11069 shell-pairs
 PRISM was handed   536648585 working-precision words and 11069 shell-pairs
 PRISM was handed   536648585 working-precision words and 11069 shell-pairs
 PRISM was handed   536648585 working-precision words and 11069 shell-pairs
 PRISM was handed   536648585 working-precision words and 11069 shell-pairs
 PRISM was handed   536648585 working-precision words and 11069 shell-pairs
 PRISM was handed   536648585 working-precision words and 11069 shell-pairs
 PRISM was handed   536648585 working-precision words and 11069 shell-pairs
 PRISM was handed   536648585 working-precision words and 11069 shell-pairs
 PRISM was handed   536648585 working-precision words and 11069 shell-pairs
 PRISM was handed   536648585 working-precision words and 11069 shell-pairs
 PRISM was handed   536648585 working-precision words and 11069 shell-pairs
 PRISM was handed   536648585 working-precision words and 11069 shell-pairs
 PRISM was handed   536648585 working-precision words and 11069 shell-pairs
 PRISM was handed   536648585 working-precision words and 11069 shell-pairs
 PRISM was handed   536648585 working-precision words and 11069 shell-pairs
 PRISM was handed   536648585 working-precision words and 11069 shell-pairs
 PRISM was handed   536648585 working-precision words and 11069 shell-pairs
 PRISM was handed   536648585 working-precision words and 11069 shell-pairs
 PRISM was handed   536648585 working-precision words and 11069 shell-pairs
 PRISM was handed   536648585 working-precision words and 11069 shell-pairs
 PRISM was handed   536648585 working-precision words and 11069 shell-pairs
 PRISM was handed   536648585 working-precision words and 11069 shell-pairs
 PRISM was handed   536648585 working-precision words and 11069 shell-pairs
 PRISM was handed   536648585 working-precision words and 11069 shell-pairs
 PRISM was handed   536648585 working-precision words and 11069 shell-pairs
 PRISM was handed   536648585 working-precision words and 11069 shell-pairs
 PRISM was handed   536648585 working-precision words and 11069 shell-pairs
 PRISM was handed   536648585 working-precision words and 11069 shell-pairs
 PRISM was handed   536648585 working-precision words and 11069 shell-pairs
 PRISM was handed   536648585 working-precision words and 11069 shell-pairs
 PRISM was handed   536648585 working-precision words and 11069 shell-pairs
 PRISM was handed   536648585 working-precision words and 11069 shell-pairs
 PRISM was handed   536648585 working-precision words and 11069 shell-pairs
 PRISM was handed   536648585 working-precision words and 11069 shell-pairs
 PRISM was handed   536648585 working-precision words and 11069 shell-pairs
 PRISM was handed   536648585 working-precision words and 11069 shell-pairs
 PRISM was handed   536648585 working-precision words and 11069 shell-pairs
 PRISM was handed   536648585 working-precision words and 11069 shell-pairs
 PRISM was handed   536648585 working-precision words and 11069 shell-pairs
 PRISM was handed   536648585 working-precision words and 11069 shell-pairs
 PRISM was handed   536648585 working-precision words and 11069 shell-pairs
 PRISM was handed   536648585 working-precision words and 11069 shell-pairs
 PRISM was handed   536648585 working-precision words and 11069 shell-pairs
 PRISM was handed   536648585 working-precision words and 11069 shell-pairs
 PRISM was handed   536648585 working-precision words and 11069 shell-pairs
 PRISM was handed   536648585 working-precision words and 11069 shell-pairs
 PRISM was handed   536648585 working-precision words and 11069 shell-pairs
 IPart= 27 NShTot=        2790 NBatch=          94 AvBLen=        29.7
 PrsmSu-ThDecC:  IPartSL=   27    0 NPrtUSL=  128    1 IThBeg=    0 IThEnd=  127 CPU=   -1 GPU=   -1 NThAct=  128.
 IPart=  0 NShTot=        3840 NBatch=         129 AvBLen=        29.8
 PrsmSu-ThDecC:  IPartSL=    0    0 NPrtUSL=  128    1 IThBeg=    0 IThEnd=  127 CPU=   -1 GPU=   -1 NThAct=  127.
 IPart= 50 NShTot=        2610 NBatch=          88 AvBLen=        29.7
 PrsmSu-ThDecC:  IPartSL=   50    0 NPrtUSL=  128    1 IThBeg=    0 IThEnd=  127 CPU=   -1 GPU=   -1 NThAct=  126.
 IPart=  3 NShTot=        3600 NBatch=         121 AvBLen=        29.8
 PrsmSu-ThDecC:  IPartSL=    3    0 NPrtUSL=  128    1 IThBeg=    0 IThEnd=  127 CPU=   -1 GPU=   -1 NThAct=  125.
 IPart= 12 NShTot=        3180 NBatch=         107 AvBLen=        29.7
 PrsmSu-ThDecC:  IPartSL=   12    0 NPrtUSL=  128    1 IThBeg=    0 IThEnd=  127 CPU=   -1 GPU=   -1 NThAct=  124.
 IPart= 59 NShTot=        2550 NBatch=          86 AvBLen=        29.7
 PrsmSu-ThDecC:  IPartSL=   59    0 NPrtUSL=  128    1 IThBeg=    0 IThEnd=  127 CPU=   -1 GPU=   -1 NThAct=  123.
 IPart= 32 NShTot=        2760 NBatch=          93 AvBLen=        29.7
 PrsmSu-ThDecC:  IPartSL=   32    0 NPrtUSL=  128    1 IThBeg=    0 IThEnd=  127 CPU=   -1 GPU=   -1 NThAct=  122.
 IPart= 72 NShTot=        2430 NBatch=          82 AvBLen=        29.6
 PrsmSu-ThDecC:  IPartSL=   72    0 NPrtUSL=  128    1 IThBeg=    0 IThEnd=  127 CPU=   -1 GPU=   -1 NThAct=  121.
 IPart= 86 NShTot=        2340 NBatch=          78 AvBLen=        30.0
 PrsmSu-ThDecC:  IPartSL=   86    0 NPrtUSL=  128    1 IThBeg=    0 IThEnd=  127 CPU=   -1 GPU=   -1 NThAct=  120.
 IPart= 38 NShTot=        2700 NBatch=          91 AvBLen=        29.7
 PrsmSu-ThDecC:  IPartSL=   38    0 NPrtUSL=  128    1 IThBeg=    0 IThEnd=  127 CPU=   -1 GPU=   -1 NThAct=  119.
 IPart= 30 NShTot=        2790 NBatch=          94 AvBLen=        29.7
 PrsmSu-ThDecC:  IPartSL=   30    0 NPrtUSL=  128    1 IThBeg=    0 IThEnd=  127 CPU=   -1 GPU=   -1 NThAct=  118.
 IPart= 10 NShTot=        3270 NBatch=         110 AvBLen=        29.7
 PrsmSu-ThDecC:  IPartSL=   10    0 NPrtUSL=  128    1 IThBeg=    0 IThEnd=  127 CPU=   -1 GPU=   -1 NThAct=  117.
 IPart= 52 NShTot=        2610 NBatch=          88 AvBLen=        29.7
 PrsmSu-ThDecC:  IPartSL=   52    0 NPrtUSL=  128    1 IThBeg=    0 IThEnd=  127 CPU=   -1 GPU=   -1 NThAct=  116.
 IPart= 42 NShTot=        2610 NBatch=          88 AvBLen=        29.7
 PrsmSu-ThDecC:  IPartSL=   42    0 NPrtUSL=  128    1 IThBeg=    0 IThEnd=  127 CPU=   -1 GPU=   -1 NThAct=  115.
 IPart= 37 NShTot=        2700 NBatch=          91 AvBLen=        29.7
 PrsmSu-ThDecC:  IPartSL=   37    0 NPrtUSL=  128    1 IThBeg=    0 IThEnd=  127 CPU=   -1 GPU=   -1 NThAct=  114.
 IPart=104 NShTot=        2250 NBatch=          75 AvBLen=        30.0
 PrsmSu-ThDecC:  IPartSL=  104    0 NPrtUSL=  128    1 IThBeg=    0 IThEnd=  127 CPU=   -1 GPU=   -1 NThAct=  113.
 IPart=121 NShTot=        2220 NBatch=          74 AvBLen=        30.0
 PrsmSu-ThDecC:  IPartSL=  121    0 NPrtUSL=  128    1 IThBeg=    0 IThEnd=  127 CPU=   -1 GPU=   -1 NThAct=  112.
 IPart= 76 NShTot=        2400 NBatch=          81 AvBLen=        29.6
 PrsmSu-ThDecC:  IPartSL=   76    0 NPrtUSL=  128    1 IThBeg=    0 IThEnd=  127 CPU=   -1 GPU=   -1 NThAct=  111.
 IPart= 44 NShTot=        2610 NBatch=          88 AvBLen=        29.7
 IPart= 58 NShTot=        2550 NBatch=          86 AvBLen=        29.7
 PrsmSu-ThDecC:  IPartSL=   44    0 NPrtUSL=  128    1 IThBeg=    0 IThEnd=  127 CPU=   -1 GPU=   -1 NThAct=  110.
 PrsmSu-ThDecC:  IPartSL=   58    0 NPrtUSL=  128    1 IThBeg=    0 IThEnd=  127 CPU=   -1 GPU=   -1 NThAct=  109.
 IPart= 25 NShTot=        2850 NBatch=          96 AvBLen=        29.7
 PrsmSu-ThDecC:  IPartSL=   25    0 NPrtUSL=  128    1 IThBeg=    0 IThEnd=  127 CPU=   -1 GPU=   -1 NThAct=  108.
 IPart=  8 NShTot=        3390 NBatch=         114 AvBLen=        29.7
 PrsmSu-ThDecC:  IPartSL=    8    0 NPrtUSL=  128    1 IThBeg=    0 IThEnd=  127 CPU=   -1 GPU=   -1 NThAct=  107.
 IPart= 17 NShTot=        2940 NBatch=          99 AvBLen=        29.7
 PrsmSu-ThDecC:  IPartSL=   17    0 NPrtUSL=  128    1 IThBeg=    0 IThEnd=  127 CPU=   -1 GPU=   -1 NThAct=  106.
 IPart= 16 NShTot=        2970 NBatch=         100 AvBLen=        29.7
 PrsmSu-ThDecC:  IPartSL=   16    0 NPrtUSL=  128    1 IThBeg=    0 IThEnd=  127 CPU=   -1 GPU=   -1 NThAct=  105.
 IPart=125 NShTot=        2220 NBatch=          74 AvBLen=        30.0
 PrsmSu-ThDecC:  IPartSL=  125    0 NPrtUSL=  128    1 IThBeg=    0 IThEnd=  127 CPU=   -1 GPU=   -1 NThAct=  104.
 IPart= 23 NShTot=        2850 NBatch=          96 AvBLen=        29.7
 PrsmSu-ThDecC:  IPartSL=   23    0 NPrtUSL=  128    1 IThBeg=    0 IThEnd=  127 CPU=   -1 GPU=   -1 NThAct=  103.
 IPart= 22 NShTot=        2850 NBatch=          96 AvBLen=        29.7
 PrsmSu-ThDecC:  IPartSL=   22    0 NPrtUSL=  128    1 IThBeg=    0 IThEnd=  127 CPU=   -1 GPU=   -1 NThAct=  102.
 IPart= 96 NShTot=        2310 NBatch=          77 AvBLen=        30.0
 PrsmSu-ThDecC:  IPartSL=   96    0 NPrtUSL=  128    1 IThBeg=    0 IThEnd=  127 CPU=   -1 GPU=   -1 NThAct=  101.
 IPart= 48 NShTot=        2610 NBatch=          88 AvBLen=        29.7
 PrsmSu-ThDecC:  IPartSL=   48    0 NPrtUSL=  128    1 IThBeg=    0 IThEnd=  127 CPU=   -1 GPU=   -1 NThAct=  100.
 IPart= 35 NShTot=        2730 NBatch=          92 AvBLen=        29.7
 PrsmSu-ThDecC:  IPartSL=   35    0 NPrtUSL=  128    1 IThBeg=    0 IThEnd=  127 CPU=   -1 GPU=   -1 NThAct=   99.
 IPart= 75 NShTot=        2400 NBatch=          81 AvBLen=        29.6
 PrsmSu-ThDecC:  IPartSL=   75    0 NPrtUSL=  128    1 IThBeg=    0 IThEnd=  127 CPU=   -1 GPU=   -1 NThAct=   98.
 IPart=123 NShTot=        2220 NBatch=          74 AvBLen=        30.0
 PrsmSu-ThDecC:  IPartSL=  123    0 NPrtUSL=  128    1 IThBeg=    0 IThEnd=  127 CPU=   -1 GPU=   -1 NThAct=   97.
 IPart= 19 NShTot=        2910 NBatch=          98 AvBLen=        29.7
 PrsmSu-ThDecC:  IPartSL=   19    0 NPrtUSL=  128    1 IThBeg=    0 IThEnd=  127 CPU=   -1 GPU=   -1 NThAct=   96.
 IPart=  1 NShTot=        3750 NBatch=         126 AvBLen=        29.8
 PrsmSu-ThDecC:  IPartSL=    1    0 NPrtUSL=  128    1 IThBeg=    0 IThEnd=  127 CPU=   -1 GPU=   -1 NThAct=   95.
 IPart= 54 NShTot=        2550 NBatch=          86 AvBLen=        29.7
 PrsmSu-ThDecC:  IPartSL=   54    0 NPrtUSL=  128    1 IThBeg=    0 IThEnd=  127 CPU=   -1 GPU=   -1 NThAct=   94.
 IPart= 47 NShTot=        2610 NBatch=          88 AvBLen=        29.7
 PrsmSu-ThDecC:  IPartSL=   47    0 NPrtUSL=  128    1 IThBeg=    0 IThEnd=  127 CPU=   -1 GPU=   -1 NThAct=   93.
 IPart= 39 NShTot=        2670 NBatch=          90 AvBLen=        29.7
 PrsmSu-ThDecC:  IPartSL=   39    0 NPrtUSL=  128    1 IThBeg=    0 IThEnd=  127 CPU=   -1 GPU=   -1 NThAct=   92.
 IPart= 70 NShTot=        2460 NBatch=          83 AvBLen=        29.6
 PrsmSu-ThDecC:  IPartSL=   70    0 NPrtUSL=  128    1 IThBeg=    0 IThEnd=  127 CPU=   -1 GPU=   -1 NThAct=   91.
 IPart=  6 NShTot=        3420 NBatch=         115 AvBLen=        29.7
 PrsmSu-ThDecC:  IPartSL=    6    0 NPrtUSL=  128    1 IThBeg=    0 IThEnd=  127 CPU=   -1 GPU=   -1 NThAct=   90.
 IPart= 66 NShTot=        2490 NBatch=          84 AvBLen=        29.6
 PrsmSu-ThDecC:  IPartSL=   66    0 NPrtUSL=  128    1 IThBeg=    0 IThEnd=  127 CPU=   -1 GPU=   -1 NThAct=   89.
 IPart= 88 NShTot=        2340 NBatch=          78 AvBLen=        30.0
 PrsmSu-ThDecC:  IPartSL=   88    0 NPrtUSL=  128    1 IThBeg=    0 IThEnd=  127 CPU=   -1 GPU=   -1 NThAct=   88.
 IPart= 29 NShTot=        2790 NBatch=          94 AvBLen=        29.7
 PrsmSu-ThDecC:  IPartSL=   29    0 NPrtUSL=  128    1 IThBeg=    0 IThEnd=  127 CPU=   -1 GPU=   -1 NThAct=   87.
 IPart= 18 NShTot=        2910 NBatch=          98 AvBLen=        29.7
 PrsmSu-ThDecC:  IPartSL=   18    0 NPrtUSL=  128    1 IThBeg=    0 IThEnd=  127 CPU=   -1 GPU=   -1 NThAct=   86.
 IPart= 60 NShTot=        2550 NBatch=          86 AvBLen=        29.7
 PrsmSu-ThDecC:  IPartSL=   60    0 NPrtUSL=  128    1 IThBeg=    0 IThEnd=  127 CPU=   -1 GPU=   -1 NThAct=   85.
 IPart=  2 NShTot=        3690 NBatch=         124 AvBLen=        29.8
 PrsmSu-ThDecC:  IPartSL=    2    0 NPrtUSL=  128    1 IThBeg=    0 IThEnd=  127 CPU=   -1 GPU=   -1 NThAct=   84.
 IPart= 41 NShTot=        2640 NBatch=          89 AvBLen=        29.7
 IPart= 53 NShTot=        2580 NBatch=          87 AvBLen=        29.7
 PrsmSu-ThDecC:  IPartSL=   41    0 NPrtUSL=  128    1 IThBeg=    0 IThEnd=  127 CPU=   -1 GPU=   -1 NThAct=   83.
 PrsmSu-ThDecC:  IPartSL=   53    0 NPrtUSL=  128    1 IThBeg=    0 IThEnd=  127 CPU=   -1 GPU=   -1 NThAct=   82.
 IPart=111 NShTot=        2250 NBatch=          75 AvBLen=        30.0
 PrsmSu-ThDecC:  IPartSL=  111    0 NPrtUSL=  128    1 IThBeg=    0 IThEnd=  127 CPU=   -1 GPU=   -1 NThAct=   81.
 IPart=  7 NShTot=        3390 NBatch=         114 AvBLen=        29.7
 IPart=  4 NShTot=        3510 NBatch=         118 AvBLen=        29.7
 PrsmSu-ThDecC:  IPartSL=    7    0 NPrtUSL=  128    1 IThBeg=    0 IThEnd=  127 CPU=   -1 GPU=   -1 NThAct=   80.
 PrsmSu-ThDecC:  IPartSL=    4    0 NPrtUSL=  128    1 IThBeg=    0 IThEnd=  127 CPU=   -1 GPU=   -1 NThAct=   79.
 IPart= 91 NShTot=        2340 NBatch=          78 AvBLen=        30.0
 PrsmSu-ThDecC:  IPartSL=   91    0 NPrtUSL=  128    1 IThBeg=    0 IThEnd=  127 CPU=   -1 GPU=   -1 NThAct=   78.
 IPart= 78 NShTot=        2400 NBatch=          81 AvBLen=        29.6
 PrsmSu-ThDecC:  IPartSL=   78    0 NPrtUSL=  128    1 IThBeg=    0 IThEnd=  127 CPU=   -1 GPU=   -1 NThAct=   77.
 IPart= 56 NShTot=        2550 NBatch=          86 AvBLen=        29.7
 PrsmSu-ThDecC:  IPartSL=   56    0 NPrtUSL=  128    1 IThBeg=    0 IThEnd=  127 CPU=   -1 GPU=   -1 NThAct=   76.
 IPart= 26 NShTot=        2790 NBatch=          94 AvBLen=        29.7
 PrsmSu-ThDecC:  IPartSL=   26    0 NPrtUSL=  128    1 IThBeg=    0 IThEnd=  127 CPU=   -1 GPU=   -1 NThAct=   75.
[...]
 **** Fit      -0.007891
 **** Fit      -0.009181
 **** Fit      -0.009819
 **** Fit      -0.009462
 **** Fit      -0.007944
 **** Fit      -0.005454
 **** Fit      -0.002626
 **** Fit      -0.000287
 **** Fit       0.001043
 **** Fit       0.001407
 **** Fit       0.001183
 **** Fit       0.000745
 **** Fit       0.000317
 **** Fit      -0.000016
 **** Fit      -0.006196
 **** Fit      -0.006947
 **** Fit      -0.007041
 **** Fit      -0.006259
 **** Fit      -0.004538
 **** Fit      -0.002095
 **** Fit       0.000494
 **** Fit       0.002505
 **** Fit       0.003503
 **** Fit       0.003561
 **** Fit       0.003056
 **** Fit       0.002360
 **** Fit       0.001696
 **** Fit       0.001153
 **** Fit      -0.004910
 **** Fit      -0.005334
 **** Fit      -0.005138
 **** Fit      -0.004202
 **** Fit      -0.002535
 **** Fit      -0.000355
 **** Fit       0.001873
 **** Fit       0.003588
 **** Fit       0.004445
 **** Fit       0.004484
 **** Fit       0.003999
 **** Fit       0.003303
 **** Fit       0.002602
 **** Fit       0.001994
 **** Fit      -0.003781
 **** Fit      -0.004009
 **** Fit      -0.003693
 **** Fit      -0.002777
 **** Fit      -0.001317
 **** Fit       0.000489
 **** Fit       0.002300
 **** Fit       0.003721
 **** Fit       0.004500
 **** Fit       0.004632
 **** Fit       0.004305
 **** Fit       0.003745
 **** Fit       0.003129
 **** Fit       0.002552
 **** Fit      -0.002804
 **** Fit      -0.002461
 **** Fit      -0.001650
 **** Fit      -0.000446
 **** Fit       0.000987
 **** Fit       0.002405
 **** Fit       0.003548
 **** Fit       0.004240
 **** Fit       0.004452
 **** Fit       0.004286
 **** Fit       0.003891
 **** Fit       0.003399
 **** Fit      -0.001666
 **** Fit      -0.001342
 **** Fit      -0.000663
 **** Fit       0.000298
 **** Fit       0.001409
 **** Fit       0.002499
 **** Fit       0.003397
 **** Fit       0.003981
 **** Fit       0.004220
 **** Fit       0.004161
 **** Fit       0.003897
 **** Fit       0.003520
 **** Fit      -0.000322
 **** Fit       0.000230
 **** Fit       0.000982
 **** Fit       0.001834
 **** Fit       0.002663
 **** Fit       0.003354
 **** Fit       0.003824
 **** Fit       0.004044
 **** Fit       0.004037
 **** Fit       0.003856
 **** Fit       0.001606
 **** Fit       0.002252
 **** Fit       0.002876
 **** Fit       0.003398
 **** Fit       0.003760
 **** Fit       0.003938
 **** Fit      -0.022125
 **** Fit      -0.022341
 **** Fit      -0.021963
 **** Fit      -0.021054
 **** Fit      -0.024372
 **** Fit      -0.026142
 **** Fit      -0.027381
 **** Fit      -0.027841
 **** Fit      -0.027413
 **** Fit      -0.026175
 **** Fit      -0.024342
 **** Fit      -0.022175
 **** Fit      -0.025876
 **** Fit      -0.028675
 **** Fit      -0.031254
 **** Fit      -0.033170
 **** Fit      -0.034012
 **** Fit      -0.033584
 **** Fit      -0.031983
 **** Fit      -0.029529
 **** Fit      -0.026604
 **** Fit      -0.023542
 **** Fit      -0.020576
 **** Fit      -0.025569
 **** Fit      -0.028971
 **** Fit      -0.032658
 **** Fit      -0.036204
 **** Fit      -0.038964
 **** Fit      -0.040315
 **** Fit      -0.039951
 **** Fit      -0.038003
 **** Fit      -0.034906
 **** Fit      -0.031181
 **** Fit      -0.027277
 **** Fit      -0.023510
 **** Fit      -0.023748
 **** Fit      -0.027129
 **** Fit      -0.031162
 **** Fit      -0.035716
 **** Fit      -0.040255
 **** Fit      -0.043914
 **** Fit      -0.045849
 **** Fit      -0.045650
 **** Fit      -0.043474
 **** Fit      -0.039851
 **** Fit      -0.035412
 **** Fit      -0.030716
 **** Fit      -0.026178
 **** Fit      -0.022055
 **** Fit      -0.023924
 **** Fit      -0.027528
 **** Fit      -0.031996
 **** Fit      -0.037215
 **** Fit      -0.042563
 **** Fit      -0.047001
 **** Fit      -0.049520
 **** Fit      -0.049638
 **** Fit      -0.047501
 **** Fit      -0.043638
 **** Fit      -0.038719
 **** Fit      -0.033402
 **** Fit      -0.028222
 **** Fit      -0.023521
 **** Fit      -0.020155
 **** Fit      -0.023015
 **** Fit      -0.026608
 **** Fit      -0.031205
 **** Fit      -0.036724
 **** Fit      -0.042513
 **** Fit      -0.047462
 **** Fit      -0.050508
 **** Fit      -0.051126
 **** Fit      -0.049366
 **** Fit      -0.045630
 **** Fit      -0.040552
 **** Fit      -0.034880
 **** Fit      -0.029282
 **** Fit      -0.024196
 **** Fit      -0.018491
 **** Fit      -0.021100
 **** Fit      -0.024450
 **** Fit      -0.028848
 **** Fit      -0.034254
 **** Fit      -0.040058
 **** Fit      -0.045209
 **** Fit      -0.048688
 **** Fit      -0.049916
 **** Fit      -0.048759
 **** Fit      -0.045426
 **** Fit      -0.040487
 **** Fit      -0.034772
 **** Fit      -0.029057
 **** Fit      -0.023857
 **** Fit      -0.016175
 **** Fit      -0.018430
 **** Fit      -0.021374
 **** Fit      -0.025320
 **** Fit      -0.030271
 **** Fit      -0.035732
 **** Fit      -0.040797
 **** Fit      -0.044532
 **** Fit      -0.046278
 **** Fit      -0.045708
 **** Fit      -0.042873
 **** Fit      -0.038308
 **** Fit      -0.032870
 **** Fit      -0.027382
 **** Fit      -0.022387
 **** Fit      -0.015370
 **** Fit      -0.017841
 **** Fit      -0.021199
 **** Fit      -0.025488
 **** Fit      -0.030338
 **** Fit      -0.035023
 **** Fit      -0.038704
 **** Fit      -0.040670
 **** Fit      -0.040483
 **** Fit      -0.038128
 **** Fit      -0.034107
 **** Fit      -0.029239
 **** Fit      -0.024308
 **** Fit      -0.019825
 **** Fit      -0.016021
 **** Fit      -0.012293
 **** Fit      -0.014312
 **** Fit      -0.017064
 **** Fit      -0.020603
 **** Fit      -0.024668
 **** Fit      -0.028691
 **** Fit      -0.031949
 **** Fit      -0.033769
 **** Fit      -0.033711
 **** Fit      -0.031762
 **** Fit      -0.028374
 **** Fit      -0.024268
 **** Fit      -0.020126
 **** Fit      -0.016390
 **** Fit      -0.013248
 **** Fit      -0.010712
 **** Fit      -0.011135
 **** Fit      -0.013342
 **** Fit      -0.016153
 **** Fit      -0.019369
 **** Fit      -0.022553
 **** Fit      -0.025122
 **** Fit      -0.026512
 **** Fit      -0.026368
 **** Fit      -0.024700
 **** Fit      -0.021907
 **** Fit      -0.018595
 **** Fit      -0.015325
 **** Fit      -0.012445
 **** Fit      -0.010077
 **** Fit      -0.008199
 **** Fit      -0.006728
 **** Fit      -0.010262
 **** Fit      -0.012439
 **** Fit      -0.014864
 **** Fit      -0.017196
 **** Fit      -0.018991
 **** Fit      -0.019824
 **** Fit      -0.019446
 **** Fit      -0.017909
 **** Fit      -0.015570
 **** Fit      -0.012946
 **** Fit      -0.010486
 **** Fit      -0.008437
 **** Fit      -0.006840
 **** Fit      -0.005627
 **** Fit      -0.004700
 **** Fit      -0.009538
 **** Fit      -0.011308
 **** Fit      -0.012903
 **** Fit      -0.013996
 **** Fit      -0.014287
 **** Fit      -0.013627
 **** Fit      -0.012107
 **** Fit      -0.010067
 **** Fit      -0.007962
 **** Fit      -0.006157
 **** Fit      -0.004805
 **** Fit      -0.003872
 **** Fit      -0.003240
 **** Fit      -0.002794
 **** Fit      -0.008627
 **** Fit      -0.009659
 **** Fit      -0.010206
 **** Fit      -0.010068
 **** Fit      -0.009173
 **** Fit      -0.007645
 **** Fit      -0.005810
 **** Fit      -0.004072
 **** Fit      -0.002735
 **** Fit      -0.001885
 **** Fit      -0.001434
 **** Fit      -0.001232
 **** Fit      -0.001151
 **** Fit      -0.001111
 **** Fit      -0.007259
 **** Fit      -0.007434
 **** Fit      -0.007022
 **** Fit      -0.006003
 **** Fit      -0.004521
 **** Fit      -0.002870
 **** Fit      -0.001403
 **** Fit      -0.000369
 **** Fit       0.000180
 **** Fit       0.000349
 **** Fit       0.000296
 **** Fit       0.000150
 **** Fit      -0.005447
 **** Fit      -0.005400
 **** Fit      -0.004857
 **** Fit      -0.003837
 **** Fit      -0.002478
 **** Fit      -0.001033
 **** Fit       0.000211
 **** Fit       0.001055
 **** Fit       0.001457
 **** Fit       0.001509
 **** Fit       0.001350
 **** Fit       0.001103
 **** Fit      -0.004002
 **** Fit      -0.003843
 **** Fit      -0.003276
 **** Fit      -0.002340
 **** Fit      -0.001161
 **** Fit       0.000060
 **** Fit       0.001103
 **** Fit       0.001814
 **** Fit       0.002153
 **** Fit       0.002185
 **** Fit       0.002018
 **** Fit       0.001754
 **** Fit      -0.002575
 **** Fit      -0.002046
 **** Fit      -0.001238
 **** Fit      -0.000258
 **** Fit       0.000741
 **** Fit       0.001598
 **** Fit       0.002198
 **** Fit       0.002503
 **** Fit       0.002551
 **** Fit       0.002417
 **** Fit      -0.001494
 **** Fit      -0.001031
 **** Fit      -0.000360
 **** Fit       0.000431
 **** Fit       0.001229
 **** Fit       0.001919
 **** Fit       0.002415
 **** Fit       0.002685
 **** Fit       0.002747
 **** Fit       0.002650
 **** Fit       0.000379
 **** Fit       0.001005
 **** Fit       0.001631
 **** Fit       0.002174
 **** Fit       0.002573
 **** Fit       0.002800
 **** Fit      -0.024110
 **** Fit      -0.024517
 **** Fit      -0.024269
 **** Fit      -0.023401
 **** Fit      -0.024902
 **** Fit      -0.026829
 **** Fit      -0.028241
 **** Fit      -0.028891
 **** Fit      -0.028656
 **** Fit      -0.027578
 **** Fit      -0.025835
 **** Fit      -0.023666
 **** Fit      -0.025044
 **** Fit      -0.027778
 **** Fit      -0.030295
 **** Fit      -0.032214
 **** Fit      -0.033181
 **** Fit      -0.033009
 **** Fit      -0.031745
 **** Fit      -0.029621
 **** Fit      -0.026951
 **** Fit      -0.024040
 **** Fit      -0.023579
 **** Fit      -0.026674
 **** Fit      -0.029950
 **** Fit      -0.033060
 **** Fit      -0.035517
 **** Fit      -0.036852
 **** Fit      -0.036809
 **** Fit      -0.035429
 **** Fit      -0.032991
 **** Fit      -0.029878
 **** Fit      -0.026463
 **** Fit      -0.023046
 **** Fit      -0.023941
 **** Fit      -0.027340
 **** Fit      -0.031037
 **** Fit      -0.034646
 **** Fit      -0.037590
 **** Fit      -0.039305
 **** Fit      -0.039467
 **** Fit      -0.038096
 **** Fit      -0.035484
 **** Fit      -0.032060
 **** Fit      -0.028256
 **** Fit      -0.024436
 **** Fit      -0.023356
 **** Fit      -0.026873
 **** Fit      -0.030789
 **** Fit      -0.034703
 **** Fit      -0.037999
 **** Fit      -0.040056
 **** Fit      -0.040495
 **** Fit      -0.039282
 **** Fit      -0.036684
 **** Fit      -0.033136
 **** Fit      -0.029120
 **** Fit      -0.025054
 **** Fit      -0.021863
 **** Fit      -0.025293
 **** Fit      -0.029184
 **** Fit      -0.033158
 **** Fit      -0.036613
 **** Fit      -0.038922
 **** Fit      -0.039661
 **** Fit      -0.038724
 **** Fit      -0.036312
 **** Fit      -0.032844
 **** Fit      -0.028825
 **** Fit      -0.024717
 **** Fit      -0.020852
 **** Fit      -0.019652
 **** Fit      -0.022818
 **** Fit      -0.026462
 **** Fit      -0.030254
 **** Fit      -0.033652
 **** Fit      -0.036065
 **** Fit      -0.037044
 **** Fit      -0.036414
 **** Fit      -0.034301
 **** Fit      -0.031087
 **** Fit      -0.027276
 **** Fit      -0.023344
 **** Fit      -0.017008
 **** Fit      -0.019795
 **** Fit      -0.023030
 **** Fit      -0.026446
 **** Fit      -0.029582
 **** Fit      -0.031909
 **** Fit      -0.032988
 **** Fit      -0.032602
 **** Fit      -0.030823
 **** Fit      -0.027985
 **** Fit      -0.024558
 **** Fit      -0.020998
 **** Fit      -0.014236
 **** Fit      -0.016598
 **** Fit      -0.019343
 **** Fit      -0.022257
 **** Fit      -0.024967
 **** Fit      -0.027022
 **** Fit      -0.028029
 **** Fit      -0.027773
 **** Fit      -0.026296
 **** Fit      -0.023881
 **** Fit      -0.020944
 **** Fit      -0.017891
 **** Fit      -0.015017
 **** Fit      -0.013543
 **** Fit      -0.015786
 **** Fit      -0.018151
 **** Fit      -0.020342
 **** Fit      -0.021997
 **** Fit      -0.022790
 **** Fit      -0.022542
 **** Fit      -0.021290
 **** Fit      -0.019273
 **** Fit      -0.016845
 **** Fit      -0.014349
 **** Fit      -0.012031
 **** Fit      -0.010015
 **** Fit      -0.012617
 **** Fit      -0.014458
 **** Fit      -0.016121
 **** Fit      -0.017327
 **** Fit      -0.017829
 **** Fit      -0.017499
 **** Fit      -0.016382
 **** Fit      -0.014688
 **** Fit      -0.012717
 **** Fit      -0.010750
 **** Fit      -0.008977
 **** Fit      -0.007477
 **** Fit      -0.006253
 **** Fit      -0.012531
 **** Fit      -0.013317
 **** Fit      -0.013522
 **** Fit      -0.013068
 **** Fit      -0.012016
 **** Fit      -0.010561
 **** Fit      -0.008959
 **** Fit      -0.007439
 **** Fit      -0.006139
 **** Fit      -0.005097
 **** Fit      -0.004284
 **** Fit      -0.010068
 **** Fit      -0.010023
 **** Fit      -0.009454
 **** Fit      -0.008440
 **** Fit      -0.007161
 **** Fit      -0.005840
 **** Fit      -0.004665
 **** Fit      -0.003732
 **** Fit      -0.003047
 **** Fit      -0.002561
 **** Fit      -0.007525
 **** Fit      -0.007304
 **** Fit      -0.006668
 **** Fit      -0.005700
 **** Fit      -0.004567
 **** Fit      -0.003460
 **** Fit      -0.002535
 **** Fit      -0.001859
 **** Fit      -0.001421
 **** Fit      -0.001161
 **** Fit      -0.005554
 **** Fit      -0.005235
 **** Fit      -0.004586
 **** Fit      -0.003693
 **** Fit      -0.002699
 **** Fit      -0.001766
 **** Fit      -0.001019
 **** Fit      -0.000509
 **** Fit      -0.000220
 **** Fit      -0.000095
 **** Fit      -0.004003
 **** Fit      -0.003649
 **** Fit      -0.003036
 **** Fit      -0.002243
 **** Fit      -0.001390
 **** Fit      -0.000606
 **** Fit       0.000009
 **** Fit       0.000414
 **** Fit       0.000621
 **** Fit       0.000678
 **** Fit      -0.002401
 **** Fit      -0.001854
 **** Fit      -0.001174
 **** Fit      -0.000459
 **** Fit       0.000191
 **** Fit       0.000700
 **** Fit       0.001032
 **** Fit       0.001194
 **** Fit      -0.000352
 **** Fit       0.000234
 **** Fit       0.000765
 **** Fit       0.001182
 **** Fit      -0.024568
 **** Fit      -0.024443
 **** Fit      -0.025452
 **** Fit      -0.026807
 **** Fit      -0.027503
 **** Fit      -0.027427
 **** Fit      -0.026592
 **** Fit      -0.025123
 **** Fit      -0.025173
 **** Fit      -0.027338
 **** Fit      -0.029011
 **** Fit      -0.029929
 **** Fit      -0.029940
 **** Fit      -0.029049
 **** Fit      -0.027400
 **** Fit      -0.025219
 **** Fit      -0.023295
 **** Fit      -0.025931
 **** Fit      -0.028393
 **** Fit      -0.030353
 **** Fit      -0.031497
 **** Fit      -0.031634
 **** Fit      -0.030752
 **** Fit      -0.029003
 **** Fit      -0.026637
 **** Fit      -0.023926
 **** Fit      -0.022987
 **** Fit      -0.025766
 **** Fit      -0.028417
 **** Fit      -0.030587
 **** Fit      -0.031931
 **** Fit      -0.032222
 **** Fit      -0.031422
 **** Fit      -0.029674
 **** Fit      -0.027236
 **** Fit      -0.024404
 **** Fit      -0.021882
 **** Fit      -0.024662
 **** Fit      -0.027361
 **** Fit      -0.029630
 **** Fit      -0.031112
 **** Fit      -0.031558
 **** Fit      -0.030898
 **** Fit      -0.029250
 **** Fit      -0.026862
 **** Fit      -0.024042
 **** Fit      -0.020107
 **** Fit      -0.022748
 **** Fit      -0.025350
 **** Fit      -0.027589
 **** Fit      -0.029119
 **** Fit      -0.029683
 **** Fit      -0.029184
 **** Fit      -0.027706
 **** Fit      -0.025478
 **** Fit      -0.022800
 **** Fit      -0.017871
 **** Fit      -0.020266
 **** Fit      -0.022648
 **** Fit      -0.024731
 **** Fit      -0.026203
 **** Fit      -0.026815
 **** Fit      -0.026453
 **** Fit      -0.025176
 **** Fit      -0.023183
 **** Fit      -0.020751
 **** Fit      -0.017500
 **** Fit      -0.019577
 **** Fit      -0.021406
 **** Fit      -0.022719
 **** Fit      -0.023293
 **** Fit      -0.023018
 **** Fit      -0.021931
 **** Fit      -0.020204
 **** Fit      -0.016447
 **** Fit      -0.017965
 **** Fit      -0.019047
 **** Fit      -0.019510
 **** Fit      -0.019258
 **** Fit      -0.018325
 **** Fit      -0.016856
 **** Fit      -0.015063
 **** Fit      -0.015513
 **** Fit      -0.015819
 **** Fit      -0.015543
 **** Fit      -0.014717
 **** Fit      -0.013469
 **** Fit      -0.011980
 **** Fit      -0.010431
 **** Fit      -0.008958
 **** Fit      -0.012150
 **** Fit      -0.011392
 **** Fit      -0.010321
 **** Fit      -0.009091
 **** Fit      -0.007851
 **** Fit      -0.006708
 **** Fit      -0.009241
 **** Fit      -0.008531
 **** Fit      -0.007598
 **** Fit      -0.006578
 **** Fit      -0.005591
 **** Fit      -0.004718
 **** Fit      -0.006862
 **** Fit      -0.006196
 **** Fit      -0.005379
 **** Fit      -0.004525
 **** Fit      -0.003735
 **** Fit      -0.003069
 **** Fit      -0.004973
 **** Fit      -0.004360
 **** Fit      -0.003645
 **** Fit      -0.002927
 **** Fit      -0.002287
 **** Fit      -0.001772
 **** Fit      -0.002939
 **** Fit      -0.002322
 **** Fit      -0.001718
 **** Fit      -0.001195
 **** Fit      -0.024640
 **** Fit      -0.024667
 **** Fit      -0.024864
 **** Fit      -0.025641
 **** Fit      -0.025743
 **** Fit      -0.025157
 **** Fit      -0.023963
 **** Fit      -0.023507
 **** Fit      -0.024968
 **** Fit      -0.025859
 **** Fit      -0.026049
 **** Fit      -0.025509
 **** Fit      -0.024315
 **** Fit      -0.022741
 **** Fit      -0.024261
 **** Fit      -0.025228
 **** Fit      -0.025501
 **** Fit      -0.025036
 **** Fit      -0.023898
 **** Fit      -0.021301
 **** Fit      -0.022803
 **** Fit      -0.023794
 **** Fit      -0.024128
 **** Fit      -0.023750
 **** Fit      -0.022710
 **** Fit      -0.020751
 **** Fit      -0.021706
 **** Fit      -0.022063
 **** Fit      -0.021763
 **** Fit      -0.020843
 **** Fit      -0.019183
 **** Fit      -0.019520
 -----------------------------------------------------------------
 Leave Link  602 at Tue Dec  7 19:50:07 2021, MaxMem=   104857600 cpu:               8.5 elap:               8.5
 (Enter /mnt/gpfs3_amd/share/apps/amd/gaussian/g16-A.03/g16/l9999.exe)

 Test job not archived.
 1\1\GINC-ROME026\SP\RB3LYP\6-311++G(d,p)\C12H15N1O2\MNG228\07-Dec-2021
 \0\\#P B3LYP/6-311++G(d,p) Geom=Allcheck SCF=Tight EmpiricalDispersion
 =GD3BJ Pop=CHELPG SP IOp(6/33=2)\\MAA1-AS1 geo opt\\0,1\C,0,21.0482299
 041,4.8726804865,2.2732875232\C,0,20.3933272941,5.9022204294,1.3911141
 463\C,0,20.3100544927,7.1960063974,1.7052367246\C,0,19.8000772858,5.47
 28358524,0.0802177439\O,0,19.4486481421,6.2265154157,-0.7933841423\O,0
 ,19.6532138307,4.1354370518,-0.1058998825\H,0,20.3299745635,4.12459636
 02,2.6316471621\H,0,21.4828725485,5.3445466291,3.1544893065\H,0,21.857
 2185866,4.3562918969,1.7476192613\H,0,20.7145035752,7.5750450225,2.636
 3166616\H,0,19.8372760396,7.8966119544,1.0287694105\H,0,20.0461546053,
 3.6423625437,0.62458725\C,0,25.7897691455,3.4613606982,2.2974634347\C,
 0,25.2555366591,4.5284074129,1.6920786399\C,0,24.3138527536,4.54529185
 29,0.5698804708\C,0,23.7926183352,5.76782633,0.1223958694\C,0,22.87606
 67549,5.8409422667,-0.9166643448\C,0,22.4392042697,4.6763728223,-1.564
 6037517\C,0,22.9636706235,3.4439028002,-1.1306331283\C,0,23.8774595669
 ,3.3844858841,-0.0923705729\N,0,21.5445458066,4.7428396783,-2.62263087
 98\H,0,26.4810572691,3.5791256851,3.1225766276\H,0,25.5655412874,2.444
 2410803,1.9959045875\H,0,25.5336201758,5.5138720517,2.0604385008\H,0,2
 4.1061487841,6.6842081353,0.6117196471\H,0,22.4823634165,6.8014278144,
 -1.2279573594\H,0,22.6450555099,2.5305262909,-1.622421842\H,0,24.25851
 88108,2.4162959162,0.2106897043\H,0,20.8973188564,5.5201680712,-2.5766
 958638\H,0,21.0511011068,3.8815551691,-2.8091709045\\Version=AM64L-G16
 RevA.03\State=1-A\HF=-671.743109\RMSD=2.825e-09\Dipole=-0.0363721,-0.3
 858724,1.220355\Quadrupole=-7.6284228,6.8672668,0.761156,3.0260897,-1.
 3338392,3.3530487\PG=C01 [X(C12H15N1O2)]\\@


 NATURE REVEALS EVERY SECRET ONCE.
                    - RALPH WALDO EMERSON
 Job cpu time:       0 days  0 hours 45 minutes 31.1 seconds.
 Elapsed time:       0 days  0 hours 45 minutes 36.3 seconds.
 File lengths (MBytes):  RWF=    216 Int=      0 D2E=      0 Chk=     24 Scr=     16
 Normal termination of Gaussian 16 at Tue Dec  7 19:50:07 2021.
