 Entering Gaussian System, Link 0=g16
 Initial command:
 /opt/ohpc/pub/libs/gaussian/g16-A.03/haswell/g16/l1.exe "g16_scratch/Gau-369777.inp" -scrdir="g16_scratch/"
 Entering Link 1 = /opt/ohpc/pub/libs/gaussian/g16-A.03/haswell/g16/l1.exe PID=    369778.
  
 Copyright (c) 1988,1990,1992,1993,1995,1998,2003,2009,2016,
            Gaussian, Inc.  All Rights Reserved.
  
 This is part of the Gaussian(R) 16 program.  It is based on
 the Gaussian(R) 09 system (copyright 2009, Gaussian, Inc.),
 the Gaussian(R) 03 system (copyright 2003, Gaussian, Inc.),
 the Gaussian(R) 98 system (copyright 1998, Gaussian, Inc.),
 the Gaussian(R) 94 system (copyright 1995, Gaussian, Inc.),
 the Gaussian 92(TM) system (copyright 1992, Gaussian, Inc.),
 the Gaussian 90(TM) system (copyright 1990, Gaussian, Inc.),
 the Gaussian 88(TM) system (copyright 1988, Gaussian, Inc.),
 the Gaussian 86(TM) system (copyright 1986, Carnegie Mellon
 University), and the Gaussian 82(TM) system (copyright 1983,
 Carnegie Mellon University). Gaussian is a federally registered
 trademark of Gaussian, Inc.
  
 This software contains proprietary and confidential information,
 including trade secrets, belonging to Gaussian, Inc.
  
 This software is provided under written license and may be
 used, copied, transmitted, or stored only in accord with that
 written license.
  
 The following legend is applicable only to US Government
 contracts under FAR:
  
                    RESTRICTED RIGHTS LEGEND
  
 Use, reproduction and disclosure by the US Government is
 subject to restrictions as set forth in subparagraphs (a)
 and (c) of the Commercial Computer Software - Restricted
 Rights clause in FAR 52.227-19.
  
 Gaussian, Inc.
 340 Quinnipiac St., Bldg. 40, Wallingford CT 06492
  
  
 ---------------------------------------------------------------
 Warning -- This program may not be used in any manner that
 competes with the business of Gaussian, Inc. or will provide
 assistance to any competitor of Gaussian, Inc.  The licensee
 of this program is prohibited from giving any competitor of
 Gaussian, Inc. access to this program.  By using this program,
 the user acknowledges that Gaussian, Inc. is engaged in the
 business of creating and licensing software in the field of
 computational chemistry and represents and warrants to the
 licensee that it is not a competitor of Gaussian, Inc. and that
 it will not use this program in any manner prohibited above.
 ---------------------------------------------------------------
  

 Cite this work as:
 Gaussian 16, Revision A.03,
 M. J. Frisch, G. W. Trucks, H. B. Schlegel, G. E. Scuseria, 
 M. A. Robb, J. R. Cheeseman, G. Scalmani, V. Barone, 
 G. A. Petersson, H. Nakatsuji, X. Li, M. Caricato, A. V. Marenich, 
 J. Bloino, B. G. Janesko, R. Gomperts, B. Mennucci, H. P. Hratchian, 
 J. V. Ortiz, A. F. Izmaylov, J. L. Sonnenberg, D. Williams-Young, 
 F. Ding, F. Lipparini, F. Egidi, J. Goings, B. Peng, A. Petrone, 
 T. Henderson, D. Ranasinghe, V. G. Zakrzewski, J. Gao, N. Rega, 
 G. Zheng, W. Liang, M. Hada, M. Ehara, K. Toyota, R. Fukuda, 
 J. Hasegawa, M. Ishida, T. Nakajima, Y. Honda, O. Kitao, H. Nakai, 
 T. Vreven, K. Throssell, J. A. Montgomery, Jr., J. E. Peralta, 
 F. Ogliaro, M. J. Bearpark, J. J. Heyd, E. N. Brothers, K. N. Kudin, 
 V. N. Staroverov, T. A. Keith, R. Kobayashi, J. Normand, 
 K. Raghavachari, A. P. Rendell, J. C. Burant, S. S. Iyengar, 
 J. Tomasi, M. Cossi, J. M. Millam, M. Klene, C. Adamo, R. Cammi, 
 J. W. Ochterski, R. L. Martin, K. Morokuma, O. Farkas, 
 J. B. Foresman, and D. J. Fox, Gaussian, Inc., Wallingford CT, 2016.
 
 ******************************************
 Gaussian 16:  ES64L-G16RevA.03 25-Dec-2016
                21-Apr-2022 
 ******************************************
 %Mem=192GB
 %NProcShared=48
 Will use up to   48 processors via shared memory.
 %Chk=DMAEMA-6.chk
 ---------------------------------------------------------------------
 #n B3LYP/6-311++G(d,p) Opt freq EmpiricalDispersion=GD3BJ IOp(6/33=2)
 ---------------------------------------------------------------------
 1/18=20,19=15,26=3,38=1/1,3;
 2/9=110,12=2,17=6,18=5,40=1/2;
 3/5=4,6=6,7=1111,11=2,25=1,30=1,71=1,74=-5,124=41/1,2,3;
 4//1;
 5/5=2,38=5/2;
 6/7=2,8=2,9=2,10=2,28=1,33=2/1;
 7//1,2,3,16;
 1/18=20,19=15,26=3/3(2);
 2/9=110/2;
 99//99;
 2/9=110/2;
 3/5=4,6=6,7=1111,11=2,25=1,30=1,71=1,74=-5,124=41/1,2,3;
 4/5=5,16=3,69=1/1;
 5/5=2,38=5/2;
 7//1,2,3,16;
 1/18=20,19=15,26=3/3(-5);
 2/9=110/2;
 6/7=2,8=2,9=2,10=2,19=2,28=1,33=2/1;
 99/9=1/99;
 --------------
 DMAEMA geo opt
 --------------
 Symbolic Z-matrix:
 Charge =  0 Multiplicity = 1
 H                     1.702    -1.8475   -1.294 
 C                     1.2364   -0.876    -1.4347 
 H                     1.6096   -0.2726   -2.2576 
 C                     0.2476   -0.4266   -0.6449 
 C                    -0.2987   -1.2251    0.4911 
 O                    -1.3943   -1.012     0.9848 
 O                     0.5591   -2.2054    0.8881 
 C                    -0.1173   -3.3578    1.4176 
 H                     0.138    -4.2363    0.8138 
 H                     0.2239   -3.5058    2.4474 
 C                    -1.6382   -3.1351    1.3902 
 H                    -2.1394   -3.9818    1.878 
 H                    -1.8513   -2.2609    2.0209 
 N                    -2.1863   -2.9004    0.0386 
 C                    -3.6363   -2.693     0.055 
 H                    -3.925    -1.8527    0.6961 
 H                    -4.0097   -2.5002   -0.957 
 H                    -4.1636   -3.5898    0.3942 
 C                    -1.5354   -1.7435   -0.5822 
 H                    -1.7111   -0.8195   -0.0189 
 H                    -0.4546   -1.9011   -0.6634 
 H                    -1.9066   -1.5968   -1.6035 
 C                    -0.3702    0.9223   -0.8786 
 H                     0.3851    1.7103   -0.7853 
 H                    -0.8047    0.973    -1.8829 
 H                    -1.17      1.1561   -0.17 
 

 GradGradGradGradGradGradGradGradGradGradGradGradGradGradGradGradGradGrad
 Berny optimization.
 Initialization pass.
                           ----------------------------
                           !    Initial Parameters    !
                           ! (Angstroms and Degrees)  !
 --------------------------                            --------------------------
 ! Name  Definition              Value          Derivative Info.                !
 --------------------------------------------------------------------------------
 ! R1    R(1,2)                  1.0865         estimate D2E/DX2                !
 ! R2    R(2,3)                  1.0865         estimate D2E/DX2                !
 ! R3    R(2,4)                  1.3429         estimate D2E/DX2                !
 ! R4    R(4,5)                  1.4922         estimate D2E/DX2                !
 ! R5    R(4,23)                 1.5019         estimate D2E/DX2                !
 ! R6    R(5,6)                  1.2204         estimate D2E/DX2                !
 ! R7    R(5,7)                  1.3618         estimate D2E/DX2                !
 ! R8    R(5,19)                 1.7176         estimate D2E/DX2                !
 ! R9    R(6,20)                 1.07           estimate D2E/DX2                !
 ! R10   R(7,8)                  1.4373         estimate D2E/DX2                !
 ! R11   R(8,9)                  1.0961         estimate D2E/DX2                !
 ! R12   R(8,10)                 1.0949         estimate D2E/DX2                !
 ! R13   R(8,11)                 1.5374         estimate D2E/DX2                !
 ! R14   R(11,12)                1.0982         estimate D2E/DX2                !
 ! R15   R(11,13)                1.0988         estimate D2E/DX2                !
 ! R16   R(11,14)                1.4773         estimate D2E/DX2                !
 ! R17   R(14,15)                1.4648         estimate D2E/DX2                !
 ! R18   R(14,19)                1.4654         estimate D2E/DX2                !
 ! R19   R(15,16)                1.0957         estimate D2E/DX2                !
 ! R20   R(15,17)                1.0958         estimate D2E/DX2                !
 ! R21   R(15,18)                1.0942         estimate D2E/DX2                !
 ! R22   R(19,20)                1.0963         estimate D2E/DX2                !
 ! R23   R(19,21)                1.0952         estimate D2E/DX2                !
 ! R24   R(19,22)                1.0965         estimate D2E/DX2                !
 ! R25   R(23,24)                1.0955         estimate D2E/DX2                !
 ! R26   R(23,25)                1.0954         estimate D2E/DX2                !
 ! R27   R(23,26)                1.0938         estimate D2E/DX2                !
 ! A1    A(1,2,3)              116.5816         estimate D2E/DX2                !
 ! A2    A(1,2,4)              122.589          estimate D2E/DX2                !
 ! A3    A(3,2,4)              120.8294         estimate D2E/DX2                !
 ! A4    A(2,4,5)              122.5634         estimate D2E/DX2                !
 ! A5    A(2,4,23)             120.7903         estimate D2E/DX2                !
 ! A6    A(5,4,23)             116.6454         estimate D2E/DX2                !
 ! A7    A(4,5,6)              122.9012         estimate D2E/DX2                !
 ! A8    A(4,5,7)              112.1203         estimate D2E/DX2                !
 ! A9    A(4,5,19)              87.0989         estimate D2E/DX2                !
 ! A10   A(6,5,7)              124.9766         estimate D2E/DX2                !
 ! A11   A(6,5,19)              70.0694         estimate D2E/DX2                !
 ! A12   A(7,5,19)             114.7371         estimate D2E/DX2                !
 ! A13   A(5,6,20)              85.2815         estimate D2E/DX2                !
 ! A14   A(5,7,8)              112.8383         estimate D2E/DX2                !
 ! A15   A(7,8,9)              109.2714         estimate D2E/DX2                !
 ! A16   A(7,8,10)             107.9516         estimate D2E/DX2                !
 ! A17   A(7,8,11)             110.0505         estimate D2E/DX2                !
 ! A18   A(9,8,10)             109.705          estimate D2E/DX2                !
 ! A19   A(9,8,11)             109.6756         estimate D2E/DX2                !
 ! A20   A(10,8,11)            110.1594         estimate D2E/DX2                !
 ! A21   A(8,11,12)            109.3838         estimate D2E/DX2                !
 ! A22   A(8,11,13)            107.2699         estimate D2E/DX2                !
 ! A23   A(8,11,14)            113.9771         estimate D2E/DX2                !
 ! A24   A(12,11,13)           105.6596         estimate D2E/DX2                !
 ! A25   A(12,11,14)           111.073          estimate D2E/DX2                !
 ! A26   A(13,11,14)           109.0746         estimate D2E/DX2                !
 ! A27   A(11,14,15)           112.3035         estimate D2E/DX2                !
 ! A28   A(11,14,19)           110.3785         estimate D2E/DX2                !
 ! A29   A(15,14,19)           109.4288         estimate D2E/DX2                !
 ! A30   A(14,15,16)           112.0838         estimate D2E/DX2                !
 ! A31   A(14,15,17)           110.6022         estimate D2E/DX2                !
 ! A32   A(14,15,18)           111.3729         estimate D2E/DX2                !
 ! A33   A(16,15,17)           108.4007         estimate D2E/DX2                !
 ! A34   A(16,15,18)           108.675          estimate D2E/DX2                !
 ! A35   A(17,15,18)           105.4429         estimate D2E/DX2                !
 ! A36   A(5,19,14)            107.0594         estimate D2E/DX2                !
 ! A37   A(5,19,20)             62.6097         estimate D2E/DX2                !
 ! A38   A(5,19,21)             51.6281         estimate D2E/DX2                !
 ! A39   A(5,19,22)            141.7559         estimate D2E/DX2                !
 ! A40   A(14,19,20)           112.1182         estimate D2E/DX2                !
 ! A41   A(14,19,21)           110.8621         estimate D2E/DX2                !
 ! A42   A(14,19,22)           110.4766         estimate D2E/DX2                !
 ! A43   A(20,19,21)           108.5128         estimate D2E/DX2                !
 ! A44   A(20,19,22)           108.1524         estimate D2E/DX2                !
 ! A45   A(21,19,22)           106.5145         estimate D2E/DX2                !
 ! A46   A(6,20,19)            106.4333         estimate D2E/DX2                !
 ! A47   A(4,23,24)            110.4361         estimate D2E/DX2                !
 ! A48   A(4,23,25)            110.3268         estimate D2E/DX2                !
 ! A49   A(4,23,26)            113.0747         estimate D2E/DX2                !
 ! A50   A(24,23,25)           108.5577         estimate D2E/DX2                !
 ! A51   A(24,23,26)           107.1699         estimate D2E/DX2                !
 ! A52   A(25,23,26)           107.0978         estimate D2E/DX2                !
 ! D1    D(1,2,4,5)             -0.1805         estimate D2E/DX2                !
 ! D2    D(1,2,4,23)          -179.8195         estimate D2E/DX2                !
 ! D3    D(3,2,4,5)            179.6934         estimate D2E/DX2                !
 ! D4    D(3,2,4,23)             0.0545         estimate D2E/DX2                !
 ! D5    D(2,4,5,6)           -160.0019         estimate D2E/DX2                !
 ! D6    D(2,4,5,7)             19.5127         estimate D2E/DX2                !
 ! D7    D(2,4,5,19)           -96.0617         estimate D2E/DX2                !
 ! D8    D(23,4,5,6)            19.6511         estimate D2E/DX2                !
 ! D9    D(23,4,5,7)          -160.8343         estimate D2E/DX2                !
 ! D10   D(23,4,5,19)           83.5913         estimate D2E/DX2                !
 ! D11   D(2,4,23,24)          -60.566          estimate D2E/DX2                !
 ! D12   D(2,4,23,25)           59.4487         estimate D2E/DX2                !
 ! D13   D(2,4,23,26)          179.3567         estimate D2E/DX2                !
 ! D14   D(5,4,23,24)          119.7744         estimate D2E/DX2                !
 ! D15   D(5,4,23,25)         -120.2109         estimate D2E/DX2                !
 ! D16   D(5,4,23,26)           -0.3029         estimate D2E/DX2                !
 ! D17   D(4,5,6,20)            38.2246         estimate D2E/DX2                !
 ! D18   D(7,5,6,20)          -141.2266         estimate D2E/DX2                !
 ! D19   D(19,5,6,20)          -34.3953         estimate D2E/DX2                !
 ! D20   D(4,5,7,8)           -149.5022         estimate D2E/DX2                !
 ! D21   D(6,5,7,8)             30.0004         estimate D2E/DX2                !
 ! D22   D(19,5,7,8)           -52.199          estimate D2E/DX2                !
 ! D23   D(4,5,19,14)          165.0469         estimate D2E/DX2                !
 ! D24   D(4,5,19,20)          -88.4195         estimate D2E/DX2                !
 ! D25   D(4,5,19,21)           61.6221         estimate D2E/DX2                !
 ! D26   D(4,5,19,22)           -3.6148         estimate D2E/DX2                !
 ! D27   D(6,5,19,14)          -68.3037         estimate D2E/DX2                !
 ! D28   D(6,5,19,20)           38.2299         estimate D2E/DX2                !
 ! D29   D(6,5,19,21)         -171.7285         estimate D2E/DX2                !
 ! D30   D(6,5,19,22)          123.0346         estimate D2E/DX2                !
 ! D31   D(7,5,19,14)           51.9817         estimate D2E/DX2                !
 ! D32   D(7,5,19,20)          158.5153         estimate D2E/DX2                !
 ! D33   D(7,5,19,21)          -51.4431         estimate D2E/DX2                !
 ! D34   D(7,5,19,22)         -116.6801         estimate D2E/DX2                !
 ! D35   D(5,6,20,19)           60.1624         estimate D2E/DX2                !
 ! D36   D(5,7,8,9)            119.9989         estimate D2E/DX2                !
 ! D37   D(5,7,8,10)          -120.7428         estimate D2E/DX2                !
 ! D38   D(5,7,8,11)            -0.4853         estimate D2E/DX2                !
 ! D39   D(7,8,11,12)         -174.9949         estimate D2E/DX2                !
 ! D40   D(7,8,11,13)          -60.8508         estimate D2E/DX2                !
 ! D41   D(7,8,11,14)           60.0007         estimate D2E/DX2                !
 ! D42   D(9,8,11,12)           64.7649         estimate D2E/DX2                !
 ! D43   D(9,8,11,13)          178.909          estimate D2E/DX2                !
 ! D44   D(9,8,11,14)          -60.2394         estimate D2E/DX2                !
 ! D45   D(10,8,11,12)         -56.0806         estimate D2E/DX2                !
 ! D46   D(10,8,11,13)          58.0635         estimate D2E/DX2                !
 ! D47   D(10,8,11,14)         178.915          estimate D2E/DX2                !
 ! D48   D(8,11,14,15)         179.999          estimate D2E/DX2                !
 ! D49   D(8,11,14,19)         -57.595          estimate D2E/DX2                !
 ! D50   D(12,11,14,15)         55.8986         estimate D2E/DX2                !
 ! D51   D(12,11,14,19)        178.3046         estimate D2E/DX2                !
 ! D52   D(13,11,14,15)        -60.1614         estimate D2E/DX2                !
 ! D53   D(13,11,14,19)         62.2446         estimate D2E/DX2                !
 ! D54   D(11,14,15,16)         57.6747         estimate D2E/DX2                !
 ! D55   D(11,14,15,17)        178.769          estimate D2E/DX2                !
 ! D56   D(11,14,15,18)        -64.3207         estimate D2E/DX2                !
 ! D57   D(19,14,15,16)        -65.2675         estimate D2E/DX2                !
 ! D58   D(19,14,15,17)         55.8268         estimate D2E/DX2                !
 ! D59   D(19,14,15,18)        172.7371         estimate D2E/DX2                !
 ! D60   D(11,14,19,5)           4.7615         estimate D2E/DX2                !
 ! D61   D(11,14,19,20)        -61.9893         estimate D2E/DX2                !
 ! D62   D(11,14,19,21)         59.4555         estimate D2E/DX2                !
 ! D63   D(11,14,19,22)        177.2973         estimate D2E/DX2                !
 ! D64   D(15,14,19,5)         128.8396         estimate D2E/DX2                !
 ! D65   D(15,14,19,20)         62.0888         estimate D2E/DX2                !
 ! D66   D(15,14,19,21)       -176.4664         estimate D2E/DX2                !
 ! D67   D(15,14,19,22)        -58.6246         estimate D2E/DX2                !
 ! D68   D(5,19,20,6)          -43.7754         estimate D2E/DX2                !
 ! D69   D(14,19,20,6)          54.6235         estimate D2E/DX2                !
 ! D70   D(21,19,20,6)         -68.1607         estimate D2E/DX2                !
 ! D71   D(22,19,20,6)         176.6726         estimate D2E/DX2                !
 --------------------------------------------------------------------------------
 Trust Radius=3.00D-01 FncErr=1.00D-07 GrdErr=1.00D-06 EigMax=2.50D+02 EigMin=1.00D-04
 Number of steps in this run=    156 maximum allowed number of steps=    156.
 GradGradGradGradGradGradGradGradGradGradGradGradGradGradGradGradGradGrad

                          Input orientation:                          
 ---------------------------------------------------------------------
 Center     Atomic      Atomic             Coordinates (Angstroms)
 Number     Number       Type             X           Y           Z
 ---------------------------------------------------------------------
      1          1           0        1.702000   -1.847500   -1.294000
      2          6           0        1.236400   -0.876000   -1.434700
      3          1           0        1.609600   -0.272600   -2.257600
      4          6           0        0.247600   -0.426600   -0.644900
      5          6           0       -0.298700   -1.225100    0.491100
      6          8           0       -1.394300   -1.012000    0.984800
      7          8           0        0.559100   -2.205400    0.888100
      8          6           0       -0.117300   -3.357800    1.417600
      9          1           0        0.138000   -4.236300    0.813800
     10          1           0        0.223900   -3.505800    2.447400
     11          6           0       -1.638200   -3.135100    1.390200
     12          1           0       -2.139400   -3.981800    1.878000
     13          1           0       -1.851300   -2.260900    2.020900
     14          7           0       -2.186300   -2.900400    0.038600
     15          6           0       -3.636300   -2.693000    0.055000
     16          1           0       -3.925000   -1.852700    0.696100
     17          1           0       -4.009700   -2.500200   -0.957000
     18          1           0       -4.163600   -3.589800    0.394200
     19          6           0       -1.535400   -1.743500   -0.582200
     20          1           0       -1.711100   -0.819500   -0.018900
     21          1           0       -0.454600   -1.901100   -0.663400
     22          1           0       -1.906600   -1.596800   -1.603500
     23          6           0       -0.370200    0.922300   -0.878600
     24          1           0        0.385100    1.710300   -0.785300
     25          1           0       -0.804700    0.973000   -1.882900
     26          1           0       -1.170000    1.156100   -0.170000
 ---------------------------------------------------------------------
                    Distance matrix (angstroms):
                    1          2          3          4          5
     1  H    0.000000
     2  C    1.086459   0.000000
     3  H    1.848614   1.086524   0.000000
     4  C    2.134377   1.342933   2.116497   0.000000
     5  C    2.752592   2.487390   3.479112   1.492160   0.000000
     6  O    3.934217   3.576739   4.481438   2.386305   1.220447
     7  O    2.489151   2.760695   3.838580   2.368808   1.361770
     8  C    3.597726   4.015900   5.099778   3.602637   2.332320
     9  H    3.548983   4.189732   5.225899   4.080886   3.059766
    10  H    4.351185   4.797052   5.874587   4.363984   3.049887
    11  C    4.474347   4.620273   5.661144   3.877350   2.500148
    12  H    5.419702   5.658268   6.701966   4.970135   3.593197
    13  H    4.877028   4.836632   5.851216   3.857010   2.413242
    14  N    4.243029   4.240717   5.156232   3.537051   2.564063
    15  C    5.570648   5.409612   6.223015   4.550946   3.672123
    16  H    5.968555   5.668713   6.469378   4.608973   3.685914
    17  H    5.758741   5.512512   6.183065   4.745717   4.182630
    18  H    6.347511   6.314237   7.166987   5.526685   4.531958
    19  C    3.316359   3.026911   3.855066   2.217486   1.717597
    20  H    3.785752   3.270388   4.042020   2.093502   1.555469
    21  H    2.247544   2.122549   3.074802   1.633272   1.346904
    22  H    3.630514   3.229008   3.813793   2.632273   2.666618
    23  C    3.484015   2.474731   2.692403   1.501940   2.548042
    24  H    3.827655   2.799175   2.756621   2.145917   3.273126
    25  H    3.819106   2.790300   2.742401   2.144495   3.274684
    26  H    4.305040   3.394062   3.758382   2.177168   2.620368
                    6          7          8          9         10
     6  O    0.000000
     7  O    2.291141   0.000000
     8  C    2.705702   1.437328   0.000000
     9  H    3.573975   2.075428   1.096136   0.000000
    10  H    3.313127   2.057867   1.094902   1.791552   0.000000
    11  C    2.175176   2.438150   1.537362   2.167894   2.173133
    12  H    3.189466   3.378965   2.165694   2.526627   2.477091
    13  H    1.685854   2.663896   2.138672   3.052312   2.457261
    14  N    2.255795   2.956670   2.528165   2.790687   3.460909
    15  C    2.952432   4.305019   3.831710   4.147637   4.613607
    16  H    2.682269   4.502046   4.157459   4.712045   4.797204
    17  H    3.581291   4.936115   4.639502   4.832514   5.524902
    18  H    3.829215   4.946150   4.180157   4.370102   4.844878
    19  C    1.735076   2.600397   2.935332   3.311063   3.921647
    20  H    1.069968   2.810191   3.323657   3.973296   4.128325
    21  H    2.095256   1.878121   2.562481   2.826031   3.565459
    22  H    2.702543   3.557828   3.928073   4.121976   4.959143
    23  C    2.874466   3.710436   4.863718   5.452856   5.569856
    24  H    3.702761   4.261836   5.548947   6.162810   6.138732
    25  H    3.537168   4.431774   5.488319   5.941185   6.314203
    26  H    2.466684   3.925436   4.899382   5.635309   5.525129
                   11         12         13         14         15
    11  C    0.000000
    12  H    1.098204   0.000000
    13  H    1.098827   1.750691   0.000000
    14  N    1.477268   2.134249   2.109668   0.000000
    15  C    2.443484   2.687944   2.690297   1.464849   0.000000
    16  H    2.712154   3.019656   2.494384   2.133790   1.095656
    17  H    3.396536   3.705454   3.685627   2.115695   1.095784
    18  H    2.752529   2.540219   3.123917   2.124015   1.094236
    19  C    2.416088   3.380442   2.672756   1.465429   2.391935
    20  H    2.711620   3.712386   2.501614   2.135244   2.687352
    21  H    2.672253   3.691419   3.047244   2.119007   3.356549
    22  H    3.376484   4.226495   3.685154   2.115206   2.635173
    23  C    4.818482   5.897382   4.553407   4.330417   4.960787
    24  H    5.683700   6.772464   5.352259   5.343170   6.022193
    25  H    5.318307   6.362062   5.176209   4.539186   5.021252
    26  H    4.589971   5.615341   4.115835   4.187072   4.576989
                   16         17         18         19         20
    16  H    0.000000
    17  H    1.777405   0.000000
    18  H    1.779210   1.742600   0.000000
    19  C    2.712225   2.614427   3.357025   0.000000
    20  H    2.545600   2.998057   3.722898   1.096336   0.000000
    21  H    3.727500   3.617162   4.210333   1.095244   1.778772
    22  H    3.070437   2.378471   3.613434   1.096524   1.775774
    23  C    4.776705   4.996560   6.030667   2.924386   2.360289
    24  H    5.785022   6.088683   7.083287   3.957058   3.373620
    25  H    4.936810   4.815852   6.106270   3.099212   2.740276
    26  H    4.170495   4.695934   5.639462   2.951458   2.053927
                   21         22         23         24         25
    21  H    0.000000
    22  H    1.756329   0.000000
    23  C    2.832847   3.038399   0.000000
    24  H    3.709739   4.105880   1.095503   0.000000
    25  H    3.141688   2.810004   1.095436   1.778753   0.000000
    26  H    3.178319   3.189978   1.093827   1.761836   1.760965
                   26
    26  H    0.000000
 Stoichiometry    C8H15NO2
 Framework group  C1[X(C8H15NO2)]
 Deg. of freedom    72
 Full point group                 C1      NOp   1
 Largest Abelian subgroup         C1      NOp   1
 Largest concise Abelian subgroup C1      NOp   1
                         Standard orientation:                         
 ---------------------------------------------------------------------
 Center     Atomic      Atomic             Coordinates (Angstroms)
 Number     Number       Type             X           Y           Z
 ---------------------------------------------------------------------
      1          1           0        2.095870    1.457838    1.521746
      2          6           0        2.509079    0.576386    1.039364
      3          1           0        3.470114    0.226773    1.406400
      4          6           0        1.879280   -0.064049    0.041031
      5          6           0        0.556114    0.378196   -0.488301
      6          8           0       -0.184211   -0.357361   -1.121045
      7          8           0        0.284436    1.674480   -0.171667
      8          6           0       -1.121892    1.928075   -0.017252
      9          1           0       -1.315130    2.287450    1.000109
     10          1           0       -1.407424    2.698181   -0.741281
     11          6           0       -1.920875    0.639490   -0.271530
     12          1           0       -2.995305    0.864455   -0.239222
     13          1           0       -1.714396    0.326063   -1.304269
     14          7           0       -1.582209   -0.467750    0.645882
     15          6           0       -2.363821   -1.675880    0.371491
     16          1           0       -2.231821   -2.026921   -0.657978
     17          1           0       -2.075467   -2.484588    1.052363
     18          1           0       -3.430414   -1.510151    0.551118
     19          6           0       -0.153357   -0.781853    0.561021
     20          1           0        0.136400   -1.118837   -0.441195
     21          1           0        0.454105    0.090835    0.823632
     22          1           0        0.109071   -1.570826    1.275875
     23          6           0        2.486034   -1.282116   -0.594569
     24          1           0        3.454820   -1.036965   -1.043435
     25          1           0        2.637490   -2.066816    0.154621
     26          1           0        1.862380   -1.708680   -1.385489
 ---------------------------------------------------------------------
 Rotational constants (GHZ):           1.8443094           1.0034552           0.7872528
 Standard basis: 6-311++G(d,p) (5D, 7F)
 There are   358 symmetry adapted cartesian basis functions of A   symmetry.
 There are   347 symmetry adapted basis functions of A   symmetry.
   347 basis functions,   531 primitive gaussians,   358 cartesian basis functions
    43 alpha electrons       43 beta electrons
       nuclear repulsion energy       725.6039256671 Hartrees.
 NAtoms=   26 NActive=   26 NUniq=   26 SFac= 1.00D+00 NAtFMM=   60 NAOKFM=F Big=F
 Integral buffers will be    131072 words long.
 Raffenetti 2 integral format.
 Two-electron integral symmetry is turned on.
 Nuclear repulsion after empirical dispersion term =      725.5563386496 Hartrees.
 One-electron integrals computed using PRISM.
 NBasis=   347 RedAO= T EigKep=  3.63D-06  NBF=   347
 NBsUse=   347 1.00D-06 EigRej= -1.00D+00 NBFU=   347
 ExpMin= 3.60D-02 ExpMax= 8.59D+03 ExpMxC= 1.30D+03 IAcc=3 IRadAn=         5 AccDes= 0.00D+00
 Harris functional with IExCor=  402 and IRadAn=       5 diagonalized for initial guess.
 HarFok:  IExCor=  402 AccDes= 0.00D+00 IRadAn=         5 IDoV= 1 UseB2=F ITyADJ=14
 ICtDFT=  3500011 ScaDFX=  1.000000  1.000000  1.000000  1.000000
 FoFCou: FMM=F IPFlag=           0 FMFlag=      100000 FMFlg1=           0
         NFxFlg=           0 DoJE=T BraDBF=F KetDBF=T FulRan=T
         wScrn=  0.000000 ICntrl=       500 IOpCl=  0 I1Cent=   200000004 NGrid=           0
         NMat0=    1 NMatS0=      1 NMatT0=    0 NMatD0=    1 NMtDS0=    0 NMtDT0=    0
 Petite list used in FoFCou.
 Requested convergence on RMS density matrix=1.00D-08 within 128 cycles.
 Requested convergence on MAX density matrix=1.00D-06.
 Requested convergence on             energy=1.00D-06.
 No special actions if energy rises.
 SCF Done:  E(RB3LYP) =  -518.801118109     A.U. after   18 cycles
            NFock= 18  Conv=0.39D-08     -V/T= 2.0003
 SCF density gives NOpUse=  1 NOpAll=  1.

 **********************************************************************

            Population analysis using the SCF density.

 **********************************************************************

 Orbital symmetries:
 BldTbl:  Degeneracy threshold= 1.00D-02
       Occupied  (A) (A) (A) (A) (A) (A) (A) (A) (A) (A) (A) (A)
                 (A) (A) (A) (A) (A) (A) (A) (A) (A) (A) (A) (A)
                 (A) (A) (A) (A) (A) (A) (A) (A) (A) (A) (A) (A)
                 (A) (A) (A) (A) (A) (A) (A)
       Virtual   (A) (A) (A) (A) (A) (A) (A) (A) (A) (A) (A) (A)
                 (A) (A) (A) (A) (A) (A) (A) (A) (A) (A) (A) (A)
                 (A) (A) (A) (A) (A) (A) (A) (A) (A) (A) (A) (A)
                 (A) (A) (A) (A) (A) (A) (A) (A) (A) (A) (A) (A)
                 (A) (A) (A) (A) (A) (A) (A) (A) (A) (A) (A) (A)
                 (A) (A) (A) (A) (A) (A) (A) (A) (A) (A) (A) (A)
                 (A) (A) (A) (A) (A) (A) (A) (A) (A) (A) (A) (A)
                 (A) (A) (A) (A) (A) (A) (A) (A) (A) (A) (A) (A)
                 (A) (A) (A) (A) (A) (A) (A) (A) (A) (A) (A) (A)
                 (A) (A) (A) (A) (A) (A) (A) (A) (A) (A) (A) (A)
                 (A) (A) (A) (A) (A) (A) (A) (A) (A) (A) (A) (A)
                 (A) (A) (A) (A) (A) (A) (A) (A) (A) (A) (A) (A)
                 (A) (A) (A) (A) (A) (A) (A) (A) (A) (A) (A) (A)
                 (A) (A) (A) (A) (A) (A) (A) (A) (A) (A) (A) (A)
                 (A) (A) (A) (A) (A) (A) (A) (A) (A) (A) (A) (A)
                 (A) (A) (A) (A) (A) (A) (A) (A) (A) (A) (A) (A)
                 (A) (A) (A) (A) (A) (A) (A) (A) (A) (A) (A) (A)
                 (A) (A) (A) (A) (A) (A) (A) (A) (A) (A) (A) (A)
                 (A) (A) (A) (A) (A) (A) (A) (A) (A) (A) (A) (A)
                 (A) (A) (A) (A) (A) (A) (A) (A) (A) (A) (A) (A)
                 (A) (A) (A) (A) (A) (A) (A) (A) (A) (A) (A) (A)
                 (A) (A) (A) (A) (A) (A) (A) (A) (A) (A) (A) (A)
                 (A) (A) (A) (A) (A) (A) (A) (A) (A) (A) (A) (A)
                 (A) (A) (A) (A) (A) (A) (A) (A) (A) (A) (A) (A)
                 (A) (A) (A) (A) (A) (A) (A) (A) (A) (A) (A) (A)
                 (A) (A) (A) (A)
 The electronic state is 1-A.
 Alpha  occ. eigenvalues --  -19.18606 -19.10512 -14.30657 -10.36115 -10.24273
 Alpha  occ. eigenvalues --  -10.20473 -10.18844 -10.18546 -10.17742 -10.17027
 Alpha  occ. eigenvalues --  -10.16845  -1.19823  -1.09293  -0.91867  -0.86536
 Alpha  occ. eigenvalues --   -0.77309  -0.74730  -0.71368  -0.69079  -0.66501
 Alpha  occ. eigenvalues --   -0.59722  -0.59421  -0.54863  -0.52770  -0.51426
 Alpha  occ. eigenvalues --   -0.49879  -0.48062  -0.46572  -0.44435  -0.43624
 Alpha  occ. eigenvalues --   -0.42986  -0.42594  -0.41555  -0.39665  -0.38825
 Alpha  occ. eigenvalues --   -0.37374  -0.36479  -0.35039  -0.32892  -0.29109
 Alpha  occ. eigenvalues --   -0.25719  -0.22906  -0.15650
 Alpha virt. eigenvalues --   -0.05043  -0.00916   0.00136   0.00327   0.01338
 Alpha virt. eigenvalues --    0.01763   0.02496   0.02717   0.03449   0.04120
 Alpha virt. eigenvalues --    0.04590   0.05082   0.05845   0.06061   0.06152
 Alpha virt. eigenvalues --    0.06811   0.07267   0.08169   0.08513   0.09307
 Alpha virt. eigenvalues --    0.09960   0.10829   0.11150   0.11550   0.11987
 Alpha virt. eigenvalues --    0.12130   0.12427   0.12770   0.12892   0.13018
 Alpha virt. eigenvalues --    0.13468   0.13765   0.14161   0.14315   0.14629
 Alpha virt. eigenvalues --    0.15418   0.15692   0.16100   0.16289   0.16956
 Alpha virt. eigenvalues --    0.17086   0.17529   0.17992   0.18507   0.18812
 Alpha virt. eigenvalues --    0.19326   0.19854   0.20039   0.20442   0.20815
 Alpha virt. eigenvalues --    0.22212   0.22486   0.23063   0.23588   0.24566
 Alpha virt. eigenvalues --    0.24699   0.25229   0.25787   0.26625   0.27663
 Alpha virt. eigenvalues --    0.28433   0.28581   0.28718   0.29298   0.29866
 Alpha virt. eigenvalues --    0.30221   0.30423   0.31578   0.32180   0.32830
 Alpha virt. eigenvalues --    0.33346   0.33817   0.34715   0.34997   0.36129
 Alpha virt. eigenvalues --    0.36449   0.37272   0.38072   0.38773   0.38967
 Alpha virt. eigenvalues --    0.40942   0.41752   0.42912   0.43881   0.45622
 Alpha virt. eigenvalues --    0.47299   0.47762   0.48359   0.50162   0.53352
 Alpha virt. eigenvalues --    0.54179   0.54967   0.55727   0.57474   0.57559
 Alpha virt. eigenvalues --    0.58381   0.59904   0.61349   0.61420   0.62905
 Alpha virt. eigenvalues --    0.63136   0.63613   0.65309   0.65991   0.66131
 Alpha virt. eigenvalues --    0.67283   0.69126   0.69415   0.70857   0.71350
 Alpha virt. eigenvalues --    0.72090   0.72934   0.73755   0.73972   0.74274
 Alpha virt. eigenvalues --    0.75639   0.76298   0.77523   0.78042   0.78413
 Alpha virt. eigenvalues --    0.79018   0.82585   0.84680   0.86980   0.89057
 Alpha virt. eigenvalues --    0.90289   0.93112   0.95290   0.96142   0.98514
 Alpha virt. eigenvalues --    0.99875   1.01328   1.02858   1.04074   1.05210
 Alpha virt. eigenvalues --    1.07257   1.10535   1.12049   1.14643   1.15658
 Alpha virt. eigenvalues --    1.16838   1.18147   1.20010   1.22200   1.24737
 Alpha virt. eigenvalues --    1.27685   1.29547   1.32823   1.34562   1.36273
 Alpha virt. eigenvalues --    1.37568   1.38812   1.42510   1.43586   1.46608
 Alpha virt. eigenvalues --    1.47443   1.47723   1.50223   1.51306   1.52128
 Alpha virt. eigenvalues --    1.53574   1.54769   1.57282   1.57762   1.59780
 Alpha virt. eigenvalues --    1.60697   1.61850   1.62417   1.63813   1.64092
 Alpha virt. eigenvalues --    1.65169   1.66158   1.68269   1.69575   1.70619
 Alpha virt. eigenvalues --    1.71232   1.72602   1.74619   1.75271   1.75852
 Alpha virt. eigenvalues --    1.78211   1.79714   1.80857   1.82015   1.83076
 Alpha virt. eigenvalues --    1.84679   1.84854   1.87631   1.91936   1.93682
 Alpha virt. eigenvalues --    1.94561   1.96189   1.99423   2.00306   2.04290
 Alpha virt. eigenvalues --    2.05588   2.07039   2.08927   2.09653   2.10933
 Alpha virt. eigenvalues --    2.12570   2.13653   2.15898   2.18234   2.18739
 Alpha virt. eigenvalues --    2.20320   2.24498   2.26044   2.27743   2.29722
 Alpha virt. eigenvalues --    2.31932   2.34672   2.37408   2.38982   2.44057
 Alpha virt. eigenvalues --    2.45583   2.46933   2.48215   2.49473   2.50824
 Alpha virt. eigenvalues --    2.52123   2.53573   2.54787   2.55836   2.56523
 Alpha virt. eigenvalues --    2.59017   2.60123   2.61463   2.63368   2.65749
 Alpha virt. eigenvalues --    2.67432   2.68436   2.70662   2.72017   2.72098
 Alpha virt. eigenvalues --    2.74644   2.76915   2.79096   2.80492   2.82184
 Alpha virt. eigenvalues --    2.85159   2.87539   2.88090   2.88201   2.91200
 Alpha virt. eigenvalues --    2.91992   2.96505   2.99524   3.01821   3.03824
 Alpha virt. eigenvalues --    3.05344   3.06787   3.09478   3.14125   3.16167
 Alpha virt. eigenvalues --    3.21808   3.25199   3.28077   3.32850   3.41297
 Alpha virt. eigenvalues --    3.46228   3.49640   3.52081   3.55006   3.58385
 Alpha virt. eigenvalues --    3.62634   3.66815   3.74411   3.76634   3.78855
 Alpha virt. eigenvalues --    3.79706   3.80542   3.81327   3.82413   3.83167
 Alpha virt. eigenvalues --    3.85322   3.87734   3.93624   4.04813   4.09473
 Alpha virt. eigenvalues --    4.18956   4.23950   4.33275   4.35508   4.38823
 Alpha virt. eigenvalues --    4.88732   4.93883   5.11296   5.32575   5.42731
 Alpha virt. eigenvalues --    5.54857   5.70734   6.03992  23.78154  23.84385
 Alpha virt. eigenvalues --   23.85678  23.94830  23.96725  24.01852  24.11116
 Alpha virt. eigenvalues --   24.23307  35.62710  49.97205  50.12992
          Condensed to atoms (all electrons):
               1          2          3          4          5          6
     1  H    0.493684   0.437545  -0.021151  -0.021695  -0.051197   0.001317
     2  C    0.437545   9.007418   0.348731  -0.853990  -1.372060  -0.161615
     3  H   -0.021151   0.348731   0.516226  -0.023553  -0.012926   0.003287
     4  C   -0.021695  -0.853990  -0.023553  10.446038  -3.853461   0.079844
     5  C   -0.051197  -1.372060  -0.012926  -3.853461  13.767682  -0.670524
     6  O    0.001317  -0.161615   0.003287   0.079844  -0.670524  10.156097
     7  O   -0.013059  -0.232340   0.001063  -0.222678   0.635100  -0.089774
     8  C    0.016335  -0.160718   0.001877   0.319304  -1.144030   0.107774
     9  H   -0.000279  -0.005429  -0.001205  -0.028698   0.098614  -0.039887
    10  H   -0.002484   0.023807   0.000769  -0.022120  -0.004206   0.025136
    11  C   -0.015208  -0.089932   0.002823  -0.430186   0.328385   0.168789
    12  H    0.000590   0.001308   0.000193   0.031077  -0.108546   0.048019
    13  H   -0.002235   0.032418  -0.000382  -0.111084   0.354640  -0.257961
    14  N   -0.010536  -0.074220   0.001866  -0.123489   0.400100  -0.312576
    15  C   -0.001455   0.032429   0.000555  -0.037863   0.129226  -0.032777
    16  H   -0.000326   0.009175  -0.000078  -0.017046   0.095332  -0.054859
    17  H    0.000012  -0.003054   0.000179   0.000515  -0.035257   0.010080
    18  H    0.000126   0.001996  -0.000000   0.013748  -0.021130  -0.000431
    19  C    0.045996   1.054892  -0.013841   0.245752  -2.697347  -1.129249
    20  H   -0.009281  -0.234970   0.002919  -0.348005   0.659750  -0.181245
    21  H    0.008191  -0.387710  -0.001719  -0.213968   0.945726  -0.103738
    22  H    0.005443   0.026552   0.003105   0.225413  -0.559916   0.305181
    23  C   -0.034693  -1.060538   0.043660  -0.109384   0.216456   0.045270
    24  H   -0.001402  -0.002614  -0.002842  -0.132559   0.080255  -0.021619
    25  H    0.001567   0.042112  -0.001603  -0.029862  -0.033884   0.021089
    26  H   -0.001823   0.079426   0.002400  -0.037204  -0.019154  -0.054729
               7          8          9         10         11         12
     1  H   -0.013059   0.016335  -0.000279  -0.002484  -0.015208   0.000590
     2  C   -0.232340  -0.160718  -0.005429   0.023807  -0.089932   0.001308
     3  H    0.001063   0.001877  -0.001205   0.000769   0.002823   0.000193
     4  C   -0.222678   0.319304  -0.028698  -0.022120  -0.430186   0.031077
     5  C    0.635100  -1.144030   0.098614  -0.004206   0.328385  -0.108546
     6  O   -0.089774   0.107774  -0.039887   0.025136   0.168789   0.048019
     7  O    8.030687   0.187071  -0.051811  -0.071319   0.011279   0.005516
     8  C    0.187071   6.796983   0.409141   0.282312  -0.438810   0.065252
     9  H   -0.051811   0.409141   0.589261  -0.068731  -0.100710  -0.018798
    10  H   -0.071319   0.282312  -0.068731   0.594090   0.056733   0.005812
    11  C    0.011279  -0.438810  -0.100710   0.056733   6.773823   0.352078
    12  H    0.005516   0.065252  -0.018798   0.005812   0.352078   0.543368
    13  H    0.012129  -0.276273   0.030284  -0.019368   0.418010  -0.071992
    14  N    0.058515  -0.304479   0.051799  -0.004100   0.188656  -0.105234
    15  C   -0.000931  -0.062956  -0.001877   0.004472  -0.165035  -0.014589
    16  H    0.000686  -0.021462   0.003879  -0.001648  -0.048031  -0.010699
    17  H    0.000935   0.000838  -0.000564   0.000014   0.027752   0.006036
    18  H   -0.001255  -0.006846  -0.002454   0.001339   0.017026   0.006451
    19  C   -0.384386   0.652558  -0.047061   0.002460  -0.948489   0.095317
    20  H    0.093629  -0.022183   0.010720  -0.006738   0.109507  -0.006156
    21  H    0.020586  -0.222447   0.007892   0.000158   0.100778  -0.019206
    22  H   -0.014356   0.115836  -0.024033   0.009288   0.057565   0.017643
    23  C    0.086952   0.020295   0.001803  -0.004929   0.028406  -0.001096
    24  H   -0.000525  -0.004781   0.000459  -0.000274  -0.005077  -0.000412
    25  H   -0.000968   0.002358   0.000589  -0.000566   0.004052   0.000098
    26  H   -0.009984  -0.012424   0.000096   0.000556  -0.017775  -0.000723
              13         14         15         16         17         18
     1  H   -0.002235  -0.010536  -0.001455  -0.000326   0.000012   0.000126
     2  C    0.032418  -0.074220   0.032429   0.009175  -0.003054   0.001996
     3  H   -0.000382   0.001866   0.000555  -0.000078   0.000179  -0.000000
     4  C   -0.111084  -0.123489  -0.037863  -0.017046   0.000515   0.013748
     5  C    0.354640   0.400100   0.129226   0.095332  -0.035257  -0.021130
     6  O   -0.257961  -0.312576  -0.032777  -0.054859   0.010080  -0.000431
     7  O    0.012129   0.058515  -0.000931   0.000686   0.000935  -0.001255
     8  C   -0.276273  -0.304479  -0.062956  -0.021462   0.000838  -0.006846
     9  H    0.030284   0.051799  -0.001877   0.003879  -0.000564  -0.002454
    10  H   -0.019368  -0.004100   0.004472  -0.001648   0.000014   0.001339
    11  C    0.418010   0.188656  -0.165035  -0.048031   0.027752   0.017026
    12  H   -0.071992  -0.105234  -0.014589  -0.010699   0.006036   0.006451
    13  H    0.713600   0.008466  -0.004274   0.054217  -0.006777  -0.003474
    14  N    0.008466   7.312942   0.394723  -0.061731  -0.070607  -0.067200
    15  C   -0.004274   0.394723   5.263790   0.422936   0.381467   0.388164
    16  H    0.054217  -0.061731   0.422936   0.653675  -0.050817  -0.046259
    17  H   -0.006777  -0.070607   0.381467  -0.050817   0.559220  -0.026254
    18  H   -0.003474  -0.067200   0.388164  -0.046259  -0.026254   0.568824
    19  C   -0.062948  -0.552274  -0.400547  -0.042249   0.043816   0.048093
    20  H    0.064986   0.028406  -0.042654   0.035233   0.007903  -0.018313
    21  H    0.020325   0.272046   0.053568   0.007847  -0.010847  -0.000159
    22  H   -0.054363  -0.234882  -0.044376  -0.033473   0.019344   0.008296
    23  C   -0.006121   0.023512   0.002353  -0.005786   0.002310   0.000123
    24  H    0.002923   0.000563  -0.001202   0.001082  -0.000193  -0.000043
    25  H   -0.000803  -0.004431  -0.002618  -0.000640   0.000003  -0.000256
    26  H    0.004742   0.001347   0.006152   0.000778  -0.001030   0.001157
              19         20         21         22         23         24
     1  H    0.045996  -0.009281   0.008191   0.005443  -0.034693  -0.001402
     2  C    1.054892  -0.234970  -0.387710   0.026552  -1.060538  -0.002614
     3  H   -0.013841   0.002919  -0.001719   0.003105   0.043660  -0.002842
     4  C    0.245752  -0.348005  -0.213968   0.225413  -0.109384  -0.132559
     5  C   -2.697347   0.659750   0.945726  -0.559916   0.216456   0.080255
     6  O   -1.129249  -0.181245  -0.103738   0.305181   0.045270  -0.021619
     7  O   -0.384386   0.093629   0.020586  -0.014356   0.086952  -0.000525
     8  C    0.652558  -0.022183  -0.222447   0.115836   0.020295  -0.004781
     9  H   -0.047061   0.010720   0.007892  -0.024033   0.001803   0.000459
    10  H    0.002460  -0.006738   0.000158   0.009288  -0.004929  -0.000274
    11  C   -0.948489   0.109507   0.100778   0.057565   0.028406  -0.005077
    12  H    0.095317  -0.006156  -0.019206   0.017643  -0.001096  -0.000412
    13  H   -0.062948   0.064986   0.020325  -0.054363  -0.006121   0.002923
    14  N   -0.552274   0.028406   0.272046  -0.234882   0.023512   0.000563
    15  C   -0.400547  -0.042654   0.053568  -0.044376   0.002353  -0.001202
    16  H   -0.042249   0.035233   0.007847  -0.033473  -0.005786   0.001082
    17  H    0.043816   0.007903  -0.010847   0.019344   0.002310  -0.000193
    18  H    0.048093  -0.018313  -0.000159   0.008296   0.000123  -0.000043
    19  C   11.823540  -0.223188  -0.731289   0.449294  -0.367256  -0.010056
    20  H   -0.223188   0.965544   0.027408  -0.125615   0.110952  -0.002410
    21  H   -0.731289   0.027408   1.005613  -0.139684   0.006488   0.014825
    22  H    0.449294  -0.125615  -0.139684   0.849816  -0.020346  -0.012850
    23  C   -0.367256   0.110952   0.006488  -0.020346   6.522690   0.419950
    24  H   -0.010056  -0.002410   0.014825  -0.012850   0.419950   0.572406
    25  H   -0.042361   0.013820  -0.018679   0.013994   0.405227  -0.039359
    26  H    0.120179  -0.032520  -0.002564  -0.007288   0.325698  -0.019094
              25         26
     1  H    0.001567  -0.001823
     2  C    0.042112   0.079426
     3  H   -0.001603   0.002400
     4  C   -0.029862  -0.037204
     5  C   -0.033884  -0.019154
     6  O    0.021089  -0.054729
     7  O   -0.000968  -0.009984
     8  C    0.002358  -0.012424
     9  H    0.000589   0.000096
    10  H   -0.000566   0.000556
    11  C    0.004052  -0.017775
    12  H    0.000098  -0.000723
    13  H   -0.000803   0.004742
    14  N   -0.004431   0.001347
    15  C   -0.002618   0.006152
    16  H   -0.000640   0.000778
    17  H    0.000003  -0.001030
    18  H   -0.000256   0.001157
    19  C   -0.042361   0.120179
    20  H    0.013820  -0.032520
    21  H   -0.018679  -0.002564
    22  H    0.013994  -0.007288
    23  C    0.405227   0.325698
    24  H   -0.039359  -0.019094
    25  H    0.531906  -0.030670
    26  H   -0.030670   0.537934
 Mulliken charges:
               1
     1  H    0.176018
     2  C   -0.458617
     3  H    0.149648
     4  C    1.255153
     5  C   -1.127627
     6  O    0.139102
     7  O   -0.050762
     8  C   -0.300529
     9  H    0.187001
    10  H    0.199536
    11  C   -0.386408
    12  H    0.178693
    13  H    0.161316
    14  N    0.182815
    15  C   -0.266678
    16  H    0.110262
    17  H    0.144975
    18  H    0.138731
    19  C   -0.929356
    20  H    0.122501
    21  H    0.360560
    22  H    0.164413
    23  C   -0.651994
    24  H    0.164847
    25  H    0.169884
    26  H    0.166518
 Sum of Mulliken charges =  -0.00000
 Mulliken charges with hydrogens summed into heavy atoms:
               1
     2  C   -0.132952
     4  C    1.255153
     5  C   -1.127627
     6  O    0.261603
     7  O   -0.050762
     8  C    0.086008
    11  C   -0.046399
    14  N    0.182815
    15  C    0.127290
    19  C   -0.404383
    23  C   -0.150746
 DipInt: DoE/N= T F RetVal/Mat= T F Init=T NMatP=  1 IDeriv=0 Min/MaxMlt=  0  4
 Entering OneElI...
 OneElI was handed 25769474560 working-precision words.
 Multipole integrals L=0 to 4 MinM= 0 MaxM= 0.
 Requested accuracy = 0.1000D-12
 ShPair: Thresh= 1.00D-13 NBox=     0 BxSize= 0.00D+00 RnKept= 1.35D+01
         NSMCal=                10011 NSMKep=                9551
 PrmmSu-InSpLW:  IPartL=    0 NPrtUS=    1 NPrtUL=    1 DoSpLW=F IThBeg=    0 IThEnd=    0 NThAct=    1.
 PrsmSu:  NPrtUS=   1 ThrOK=F IAlg=1 NPAlg=1 LenDen=           0 ISkipM=0 DoSpLW=F IThBeg=    0 IThEnd=    0.
 Prism:   IPart=     0 DynPar=F LinDyn=F Incr=          95.
 PRISM was handed 25768892467 working-precision words and  9551 shell-pairs
 IPart=  0 NShTot=        9551 NBatch=          97 AvBLen=        98.5
 PrsmSu-ThDecC:  IPartSL=    0    0 NPrtUSL=    1    1 IThBeg=    0 IThEnd=    0 CPU=   -1 GPU=   -1 NThAct=    1.
 PrSmSu:  NxtVal=             96.
 Electronic moments (au):
        -86.00000000          0.05307402          0.10270760         -0.09372901
       -960.78895722       -489.08668894       -203.50512060         -2.91451839
          1.06178993          0.88737143       -610.07458572       -171.94584317
        -18.27718329        389.26354745        706.75512206       -300.47869128
       -148.29354043         66.99584951        -33.21445461       -350.60702395
     -22688.53071413      -6756.73319349      -1400.86026511       -496.54677644
       -249.16967159        133.59174950        244.49471515       -271.33328423
       -141.85091179      -5688.84435949      -2526.82181807       -996.16487163
       -445.89644759        484.54779235       -124.59452175
 Electronic spatial extent (au):  <R**2>=           1653.3808
 DipInt: DoE/N= F T RetVal/Mat= T F Init=T NMatP=  1 IDeriv=0 Min/MaxMlt=  0  4
 Nuclear    moments (au):
         86.00000000         -0.00000000          0.00000000          0.00000000
        912.08574572        439.59896990        147.81687621          0.00000000
          0.00000000         -0.00000000        605.25178667        181.23642657
          7.22953512       -406.09714225       -710.84872542        297.63939666
        155.15943385        -58.34065381         33.88430764        355.68600541
      19255.82469853       5038.37899068        582.70977544        461.09373286
        272.23815515       -181.27178011       -248.04962905        270.17876593
        167.60288470       4820.20054290       1800.31907883        599.72744508
        447.12635153       -485.93410586        128.38617239
 Total      moments (au):
         -0.00000000          0.05307402          0.10270760         -0.09372901
        -48.70321150        -49.48771905        -55.68824439         -2.91451839
          1.06178993          0.88737143         -4.82279904          9.29058340
        -11.04764816        -16.83359480         -4.09360336         -2.83929462
          6.86589343          8.65519570          0.66985303          5.07898147
      -3432.70601560      -1718.35420281       -818.15048967        -35.45304358
         23.06848355        -47.68003061         -3.55491390         -1.15451830
         25.75197290       -868.64381660       -726.50273924       -396.43742655
          1.22990394         -1.38631351          3.79165064
 Traceless Quadrup. (au):
          2.58984681          1.80533927         -4.39518608         -2.91451839
          1.06178993          0.88737143
 Charge=             -0.0000 electrons
 Dipole moment (field-independent basis, Debye):
    X=              0.1349    Y=              0.2611    Z=             -0.2382  Tot=              0.3783
 Quadrupole moment (field-independent basis, Debye-Ang):
   XX=            -65.5075   YY=            -66.5627   ZZ=            -74.9026
   XY=             -3.9201   XZ=              1.4281   YZ=              1.1935
 Traceless Quadrupole moment (field-independent basis, Debye-Ang):
   XX=              3.4834   YY=              2.4282   ZZ=             -5.9117
   XY=             -3.9201   XZ=              1.4281   YZ=              1.1935
 Octapole moment (field-independent basis, Debye-Ang**2):
  XXX=             -3.4327  YYY=              6.6127  ZZZ=             -7.8633  XYY=            -11.9815
  XXY=             -2.9137  XXZ=             -2.0209  XZZ=              4.8869  YZZ=              6.1604
  YYZ=              0.4768  XYZ=              3.6150
 Hexadecapole moment (field-independent basis, Debye-Ang**3):
 XXXX=          -1292.9217 YYYY=           -647.2146 ZZZZ=           -308.1547 XXXY=            -13.3533
 XXXZ=              8.6887 YYYX=            -17.9586 YYYZ=             -1.3390 ZZZX=             -0.4348
 ZZZY=              9.6994 XXYY=           -327.1729 XXZZ=           -273.6358 YYZZ=           -149.3173
 XXYZ=              0.4632 YYXZ=             -0.5222 ZZXY=              1.4281
 N-N= 7.255563386496D+02 E-N=-2.661648590598D+03  KE= 5.186292129725D+02
 Entering OneElI...
 OneElI was handed 25769545553 working-precision words.
 Calculate electrostatic properties
    NBasis =   347  MinDer = 0  MaxDer = 0
    NGrid  =    26  NMatD  =   1
 Requested accuracy = 0.1000D-12
 ShPair: Thresh= 1.00D-13 NBox=     0 BxSize= 0.00D+00 RnKept= 1.35D+01
         NSMCal=                10011 NSMKep=                9078
 PrmmSu-InSpLW:  IPartL=    0 NPrtUS=   48 NPrtUL=    1 DoSpLW=F IThBeg=    0 IThEnd=   47 NThAct=   48.
 PrsmSu:  NPrtUS=  48 ThrOK=T IAlg=1 NPAlg=1 LenDen=           0 ISkipM=0 DoSpLW=F IThBeg=    0 IThEnd=   47.
 Prism:   IPart=     0 DynPar=F LinDyn=F Incr=          49.
 PRISM was handed   536682710 working-precision words and  9078 shell-pairs
 PRISM was handed   536682710 working-precision words and  9078 shell-pairs
 PRISM was handed   536682710 working-precision words and  9078 shell-pairs
 PRISM was handed   536682710 working-precision words and  9078 shell-pairs
 PRISM was handed   536682710 working-precision words and  9078 shell-pairs
 PRISM was handed   536682710 working-precision words and  9078 shell-pairs
 PRISM was handed   536682710 working-precision words and  9078 shell-pairs
 PRISM was handed   536682710 working-precision words and  9078 shell-pairs
 PRISM was handed   536682710 working-precision words and  9078 shell-pairs
 PRISM was handed   536682710 working-precision words and  9078 shell-pairs
 PRISM was handed   536682710 working-precision words and  9078 shell-pairs
 PRISM was handed   536682710 working-precision words and  9078 shell-pairs
 PRISM was handed   536682710 working-precision words and  9078 shell-pairs
 PRISM was handed   536682710 working-precision words and  9078 shell-pairs
 PRISM was handed   536682710 working-precision words and  9078 shell-pairs
 PRISM was handed   536682710 working-precision words and  9078 shell-pairs
 PRISM was handed   536682710 working-precision words and  9078 shell-pairs
 PRISM was handed   536682710 working-precision words and  9078 shell-pairs
 PRISM was handed   536682710 working-precision words and  9078 shell-pairs
 PRISM was handed   536682710 working-precision words and  9078 shell-pairs
 PRISM was handed   536682710 working-precision words and  9078 shell-pairs
 PRISM was handed   536682710 working-precision words and  9078 shell-pairs
 PRISM was handed   536682710 working-precision words and  9078 shell-pairs
 PRISM was handed   536682710 working-precision words and  9078 shell-pairs
 PRISM was handed   536682710 working-precision words and  9078 shell-pairs
 PRISM was handed   536682710 working-precision words and  9078 shell-pairs
 PRISM was handed   536682710 working-precision words and  9078 shell-pairs
 PRISM was handed   536682710 working-precision words and  9078 shell-pairs
 PRISM was handed   536682710 working-precision words and  9078 shell-pairs
 PRISM was handed   536682710 working-precision words and  9078 shell-pairs
 PRISM was handed   536682710 working-precision words and  9078 shell-pairs
 PRISM was handed   536682710 working-precision words and  9078 shell-pairs
 PRISM was handed   536682710 working-precision words and  9078 shell-pairs
 PRISM was handed   536682710 working-precision words and  9078 shell-pairs
 PRISM was handed   536682710 working-precision words and  9078 shell-pairs
 PRISM was handed   536682710 working-precision words and  9078 shell-pairs
 PRISM was handed   536682710 working-precision words and  9078 shell-pairs
 PRISM was handed   536682710 working-precision words and  9078 shell-pairs
 PRISM was handed   536682710 working-precision words and  9078 shell-pairs
 PRISM was handed   536682710 working-precision words and  9078 shell-pairs
 PRISM was handed   536682710 working-precision words and  9078 shell-pairs
 PRISM was handed   536682710 working-precision words and  9078 shell-pairs
 PRISM was handed   536682710 working-precision words and  9078 shell-pairs
 PRISM was handed   536682710 working-precision words and  9078 shell-pairs
 PRISM was handed   536682710 working-precision words and  9078 shell-pairs
 PRISM was handed   536682710 working-precision words and  9078 shell-pairs
 PRISM was handed   536682710 working-precision words and  9078 shell-pairs
 PRISM was handed   536682710 working-precision words and  9078 shell-pairs
 IPart=  0 NShTot=        5876 NBatch=         226 AvBLen=        26.0
 PrsmSu-ThDecC:  IPartSL=    0    0 NPrtUSL=   48    1 IThBeg=    0 IThEnd=   47 CPU=   -1 GPU=   -1 NThAct=   48.
 IPart= 32 NShTot=        4706 NBatch=         181 AvBLen=        26.0
 PrsmSu-ThDecC:  IPartSL=   32    0 NPrtUSL=   48    1 IThBeg=    0 IThEnd=   47 CPU=   -1 GPU=   -1 NThAct=   47.
 IPart= 29 NShTot=        4706 NBatch=         181 AvBLen=        26.0
 PrsmSu-ThDecC:  IPartSL=   29    0 NPrtUSL=   48    1 IThBeg=    0 IThEnd=   47 CPU=   -1 GPU=   -1 NThAct=   46.
 IPart= 37 NShTot=        4550 NBatch=         175 AvBLen=        26.0
 PrsmSu-ThDecC:  IPartSL=   37    0 NPrtUSL=   48    1 IThBeg=    0 IThEnd=   47 CPU=   -1 GPU=   -1 NThAct=   45.
 IPart= 31 NShTot=        4706 NBatch=         181 AvBLen=        26.0
 PrsmSu-ThDecC:  IPartSL=   31    0 NPrtUSL=   48    1 IThBeg=    0 IThEnd=   47 CPU=   -1 GPU=   -1 NThAct=   44.
 IPart= 28 NShTot=        4706 NBatch=         181 AvBLen=        26.0
 PrsmSu-ThDecC:  IPartSL=   28    0 NPrtUSL=   48    1 IThBeg=    0 IThEnd=   47 CPU=   -1 GPU=   -1 NThAct=   43.
 IPart=  3 NShTot=        5590 NBatch=         215 AvBLen=        26.0
 PrsmSu-ThDecC:  IPartSL=    3    0 NPrtUSL=   48    1 IThBeg=    0 IThEnd=   47 CPU=   -1 GPU=   -1 NThAct=   42.
 IPart= 25 NShTot=        4784 NBatch=         184 AvBLen=        26.0
 PrsmSu-ThDecC:  IPartSL=   25    0 NPrtUSL=   48    1 IThBeg=    0 IThEnd=   47 CPU=   -1 GPU=   -1 NThAct=   41.
 IPart= 19 NShTot=        4940 NBatch=         190 AvBLen=        26.0
 IPart= 27 NShTot=        4706 NBatch=         181 AvBLen=        26.0
 PrsmSu-ThDecC:  IPartSL=   19    0 NPrtUSL=   48    1 IThBeg=    0 IThEnd=   47 CPU=   -1 GPU=   -1 NThAct=   40.
 IPart= 23 NShTot=        4836 NBatch=         186 AvBLen=        26.0
 PrsmSu-ThDecC:  IPartSL=   27    0 NPrtUSL=   48    1 IThBeg=    0 IThEnd=   47 CPU=   -1 GPU=   -1 NThAct=   39.
 PrsmSu-ThDecC:  IPartSL=   23    0 NPrtUSL=   48    1 IThBeg=    0 IThEnd=   47 CPU=   -1 GPU=   -1 NThAct=   38.
 IPart= 12 NShTot=        5174 NBatch=         199 AvBLen=        26.0
 PrsmSu-ThDecC:  IPartSL=   12    0 NPrtUSL=   48    1 IThBeg=    0 IThEnd=   47 CPU=   -1 GPU=   -1 NThAct=   37.
 IPart=  1 NShTot=        5798 NBatch=         223 AvBLen=        26.0
 PrsmSu-ThDecC:  IPartSL=    1    0 NPrtUSL=   48    1 IThBeg=    0 IThEnd=   47 CPU=   -1 GPU=   -1 NThAct=   36.
 IPart= 46 NShTot=        4446 NBatch=         171 AvBLen=        26.0
 PrsmSu-ThDecC:  IPartSL=   46    0 NPrtUSL=   48    1 IThBeg=    0 IThEnd=   47 CPU=   -1 GPU=   -1 NThAct=   35.
 IPart= 26 NShTot=        4758 NBatch=         183 AvBLen=        26.0
 PrsmSu-ThDecC:  IPartSL=   26    0 NPrtUSL=   48    1 IThBeg=    0 IThEnd=   47 CPU=   -1 GPU=   -1 NThAct=   34.
 IPart=  6 NShTot=        5408 NBatch=         208 AvBLen=        26.0
 PrsmSu-ThDecC:  IPartSL=    6    0 NPrtUSL=   48    1 IThBeg=    0 IThEnd=   47 CPU=   -1 GPU=   -1 NThAct=   33.
 IPart= 47 NShTot=        4446 NBatch=         171 AvBLen=        26.0
 PrsmSu-ThDecC:  IPartSL=   47    0 NPrtUSL=   48    1 IThBeg=    0 IThEnd=   47 CPU=   -1 GPU=   -1 NThAct=   32.
 IPart= 36 NShTot=        4576 NBatch=         176 AvBLen=        26.0
 PrsmSu-ThDecC:  IPartSL=   36    0 NPrtUSL=   48    1 IThBeg=    0 IThEnd=   47 CPU=   -1 GPU=   -1 NThAct=   31.
 IPart= 14 NShTot=        5122 NBatch=         197 AvBLen=        26.0
 PrsmSu-ThDecC:  IPartSL=   14    0 NPrtUSL=   48    1 IThBeg=    0 IThEnd=   47 CPU=   -1 GPU=   -1 NThAct=   30.
 IPart= 42 NShTot=        4472 NBatch=         172 AvBLen=        26.0
 PrsmSu-ThDecC:  IPartSL=   42    0 NPrtUSL=   48    1 IThBeg=    0 IThEnd=   47 CPU=   -1 GPU=   -1 NThAct=   29.
 IPart=  8 NShTot=        5356 NBatch=         206 AvBLen=        26.0
 PrsmSu-ThDecC:  IPartSL=    8    0 NPrtUSL=   48    1 IThBeg=    0 IThEnd=   47 CPU=   -1 GPU=   -1 NThAct=   28.
 IPart= 22 NShTot=        4862 NBatch=         187 AvBLen=        26.0
 PrsmSu-ThDecC:  IPartSL=   22    0 NPrtUSL=   48    1 IThBeg=    0 IThEnd=   47 CPU=   -1 GPU=   -1 NThAct=   27.
 IPart= 34 NShTot=        4628 NBatch=         178 AvBLen=        26.0
 PrsmSu-ThDecC:  IPartSL=   34    0 NPrtUSL=   48    1 IThBeg=    0 IThEnd=   47 CPU=   -1 GPU=   -1 NThAct=   26.
 IPart= 40 NShTot=        4498 NBatch=         173 AvBLen=        26.0
 PrsmSu-ThDecC:  IPartSL=   40    0 NPrtUSL=   48    1 IThBeg=    0 IThEnd=   47 CPU=   -1 GPU=   -1 NThAct=   25.
 IPart= 20 NShTot=        4914 NBatch=         189 AvBLen=        26.0
 PrsmSu-ThDecC:  IPartSL=   20    0 NPrtUSL=   48    1 IThBeg=    0 IThEnd=   47 CPU=   -1 GPU=   -1 NThAct=   24.
 IPart= 16 NShTot=        5044 NBatch=         194 AvBLen=        26.0
 PrsmSu-ThDecC:  IPartSL=   16    0 NPrtUSL=   48    1 IThBeg=    0 IThEnd=   47 CPU=   -1 GPU=   -1 NThAct=   23.
 IPart= 39 NShTot=        4498 NBatch=         173 AvBLen=        26.0
 PrsmSu-ThDecC:  IPartSL=   39    0 NPrtUSL=   48    1 IThBeg=    0 IThEnd=   47 CPU=   -1 GPU=   -1 NThAct=   22.
 IPart= 11 NShTot=        5174 NBatch=         199 AvBLen=        26.0
 PrsmSu-ThDecC:  IPartSL=   11    0 NPrtUSL=   48    1 IThBeg=    0 IThEnd=   47 CPU=   -1 GPU=   -1 NThAct=   21.
 IPart= 45 NShTot=        4446 NBatch=         171 AvBLen=        26.0
 PrsmSu-ThDecC:  IPartSL=   45    0 NPrtUSL=   48    1 IThBeg=    0 IThEnd=   47 CPU=   -1 GPU=   -1 NThAct=   20.
 IPart= 43 NShTot=        4446 NBatch=         171 AvBLen=        26.0
 PrsmSu-ThDecC:  IPartSL=   43    0 NPrtUSL=   48    1 IThBeg=    0 IThEnd=   47 CPU=   -1 GPU=   -1 NThAct=   19.
 IPart= 38 NShTot=        4524 NBatch=         174 AvBLen=        26.0
 PrsmSu-ThDecC:  IPartSL=   38    0 NPrtUSL=   48    1 IThBeg=    0 IThEnd=   47 CPU=   -1 GPU=   -1 NThAct=   18.
 IPart= 18 NShTot=        4966 NBatch=         191 AvBLen=        26.0
 PrsmSu-ThDecC:  IPartSL=   18    0 NPrtUSL=   48    1 IThBeg=    0 IThEnd=   47 CPU=   -1 GPU=   -1 NThAct=   17.
 IPart= 17 NShTot=        4966 NBatch=         191 AvBLen=        26.0
 PrsmSu-ThDecC:  IPartSL=   17    0 NPrtUSL=   48    1 IThBeg=    0 IThEnd=   47 CPU=   -1 GPU=   -1 NThAct=   16.
 IPart= 10 NShTot=        5278 NBatch=         203 AvBLen=        26.0
 PrsmSu-ThDecC:  IPartSL=   10    0 NPrtUSL=   48    1 IThBeg=    0 IThEnd=   47 CPU=   -1 GPU=   -1 NThAct=   15.
 IPart=  9 NShTot=        5304 NBatch=         204 AvBLen=        26.0
 PrsmSu-ThDecC:  IPartSL=    9    0 NPrtUSL=   48    1 IThBeg=    0 IThEnd=   47 CPU=   -1 GPU=   -1 NThAct=   14.
 IPart= 24 NShTot=        4810 NBatch=         185 AvBLen=        26.0
 PrsmSu-ThDecC:  IPartSL=   24    0 NPrtUSL=   48    1 IThBeg=    0 IThEnd=   47 CPU=   -1 GPU=   -1 NThAct=   13.
 IPart=  7 NShTot=        5382 NBatch=         207 AvBLen=        26.0
 PrsmSu-ThDecC:  IPartSL=    7    0 NPrtUSL=   48    1 IThBeg=    0 IThEnd=   47 CPU=   -1 GPU=   -1 NThAct=   12.
 IPart= 13 NShTot=        5122 NBatch=         197 AvBLen=        26.0
 PrsmSu-ThDecC:  IPartSL=   13    0 NPrtUSL=   48    1 IThBeg=    0 IThEnd=   47 CPU=   -1 GPU=   -1 NThAct=   11.
 IPart= 35 NShTot=        4576 NBatch=         176 AvBLen=        26.0
 PrsmSu-ThDecC:  IPartSL=   35    0 NPrtUSL=   48    1 IThBeg=    0 IThEnd=   47 CPU=   -1 GPU=   -1 NThAct=   10.
 IPart= 44 NShTot=        4446 NBatch=         171 AvBLen=        26.0
 PrsmSu-ThDecC:  IPartSL=   44    0 NPrtUSL=   48    1 IThBeg=    0 IThEnd=   47 CPU=   -1 GPU=   -1 NThAct=    9.
 IPart= 41 NShTot=        4472 NBatch=         172 AvBLen=        26.0
 PrsmSu-ThDecC:  IPartSL=   41    0 NPrtUSL=   48    1 IThBeg=    0 IThEnd=   47 CPU=   -1 GPU=   -1 NThAct=    8.
 IPart= 21 NShTot=        4888 NBatch=         188 AvBLen=        26.0
 PrsmSu-ThDecC:  IPartSL=   21    0 NPrtUSL=   48    1 IThBeg=    0 IThEnd=   47 CPU=   -1 GPU=   -1 NThAct=    7.
 IPart= 30 NShTot=        4706 NBatch=         181 AvBLen=        26.0
 PrsmSu-ThDecC:  IPartSL=   30    0 NPrtUSL=   48    1 IThBeg=    0 IThEnd=   47 CPU=   -1 GPU=   -1 NThAct=    6.
 IPart= 33 NShTot=        4680 NBatch=         180 AvBLen=        26.0
 PrsmSu-ThDecC:  IPartSL=   33    0 NPrtUSL=   48    1 IThBeg=    0 IThEnd=   47 CPU=   -1 GPU=   -1 NThAct=    5.
 IPart=  2 NShTot=        5694 NBatch=         219 AvBLen=        26.0
 PrsmSu-ThDecC:  IPartSL=    2    0 NPrtUSL=   48    1 IThBeg=    0 IThEnd=   47 CPU=   -1 GPU=   -1 NThAct=    4.
 IPart=  5 NShTot=        5486 NBatch=         211 AvBLen=        26.0
 PrsmSu-ThDecC:  IPartSL=    5    0 NPrtUSL=   48    1 IThBeg=    0 IThEnd=   47 CPU=   -1 GPU=   -1 NThAct=    3.
 IPart= 15 NShTot=        5070 NBatch=         195 AvBLen=        26.0
 PrsmSu-ThDecC:  IPartSL=   15    0 NPrtUSL=   48    1 IThBeg=    0 IThEnd=   47 CPU=   -1 GPU=   -1 NThAct=    2.
 IPart=  4 NShTot=        5486 NBatch=         211 AvBLen=        26.0
 PrsmSu-ThDecC:  IPartSL=    4    0 NPrtUSL=   48    1 IThBeg=    0 IThEnd=   47 CPU=   -1 GPU=   -1 NThAct=    1.
 PrSmSu:  NxtVal=           2353.
 --------------------------------------------------------
       Center         ----      EFG at Nuclei      ----
                      3XX-RR        3YY-RR        3ZZ-RR
 --------------------------------------------------------
     1   Atom        0.081540     -0.148636      0.067096
     2   Atom        0.006022     -0.018412      0.012390
     3   Atom       -0.210008      0.104167      0.105841
     4   Atom       -0.064412      0.030943      0.033468
     5   Atom        0.397748     -0.069030     -0.328718
     6   Atom        0.025314     -0.326083      0.300770
     7   Atom       -0.640486     -0.732131      1.372617
     8   Atom       -0.471191      0.208947      0.262244
     9   Atom        0.120540      0.106586     -0.227126
    10   Atom        0.105370     -0.064674     -0.040696
    11   Atom        0.038626     -0.129189      0.090563
    12   Atom       -0.273453      0.117790      0.155663
    13   Atom        0.124369      0.096845     -0.221214
    14   Atom       -0.574592     -0.498494      1.073086
    15   Atom        0.022646     -0.117705      0.095059
    16   Atom        0.141921      0.101153     -0.243074
    17   Atom        0.113965     -0.095161     -0.018804
    18   Atom       -0.277453      0.131360      0.146093
    19   Atom       -0.270733     -0.066205      0.336938
    20   Atom        0.126958     -0.091478     -0.035480
    21   Atom        0.055069     -0.092451      0.037382
    22   Atom        0.097784     -0.072767     -0.025017
    23   Atom        0.024495     -0.050636      0.026141
    24   Atom       -0.201488      0.123694      0.077794
    25   Atom        0.143803     -0.080778     -0.063025
    26   Atom       -0.000570      0.081386     -0.080816
 --------------------------------------------------------
                        XY            XZ            YZ
 --------------------------------------------------------
     1   Atom        0.145126      0.072155     -0.178278
     2   Atom       -0.076390      0.092682      0.128399
     3   Atom        0.139845     -0.146650      0.042041
     4   Atom       -0.009175      0.122671      0.192614
     5   Atom       -0.094786      0.270667      0.272829
     6   Atom       -0.873401     -0.345723     -0.784028
     7   Atom        0.895728      0.516755     -0.635047
     8   Atom        0.132172      0.084205     -0.024757
     9   Atom        0.028010      0.063989     -0.136274
    10   Atom        0.081856     -0.071902      0.207030
    11   Atom       -0.016187     -0.116831      0.195615
    12   Atom        0.087668      0.019977      0.004236
    13   Atom        0.016910      0.049806     -0.100630
    14   Atom       -0.083013     -0.335248      0.521892
    15   Atom       -0.155965     -0.032889     -0.065594
    16   Atom        0.009105      0.053512     -0.133508
    17   Atom        0.082259     -0.079362      0.203671
    18   Atom        0.067619      0.070940     -0.013925
    19   Atom       -0.138684     -0.092940      0.280797
    20   Atom        0.078678      0.066837     -0.045709
    21   Atom       -0.180959     -0.033869     -0.041663
    22   Atom        0.071953     -0.082569      0.225315
    23   Atom        0.052397      0.038826     -0.043040
    24   Atom       -0.089821      0.163408      0.038939
    25   Atom        0.047504     -0.041457      0.217448
    26   Atom       -0.093345     -0.183074     -0.129962
 --------------------------------------------------------


 ---------------------------------------------------------------------------------
              Nuclear Quadrupole Coupling Constant in Principal Axis System
 ---------------------------------------------------------------------------------

       Atom             a.u.   MegaHertz   Gauss  10(-4) cm-1        Axes

              Baa    -0.6664     3.201     1.142     1.068 -0.5109  0.7913 -0.3359
    14 N(14)  Bbb    -0.6279     3.015     1.076     1.006  0.8403  0.5422 -0.0007
              Bcc     1.2943    -6.216    -2.218    -2.073 -0.1815  0.2826  0.9419
 

 ---------------------------------------------------------------------------------

 No NMR shielding tensors so no spin-rotation constants.
 Leave Link  601 at Thu Apr 21 16:33:30 2022, MaxMem= 25769803776 cpu:              13.3 elap:               0.3
 Calling FoFJK, ICntrl=      2127 FMM=F ISym2X=0 I1Cent= 0 IOpClX= 0 NMat=1 NMatS=1 NMatT=0.
 ***** Axes restored to original set *****
 -------------------------------------------------------------------
 Center     Atomic                   Forces (Hartrees/Bohr)
 Number     Number              X              Y              Z
 -------------------------------------------------------------------
      1        1          -0.000261150    0.002785532    0.001551001
      2        6           0.003187147   -0.000677019    0.004687985
      3        1          -0.004469143   -0.001789573    0.000459533
      4        6           0.054791420    0.063963685    0.004491237
      5        6           0.112202855   -0.009124225   -0.005675596
      6        8           0.046600142    0.139951298    0.342332716
      7        8           0.004222497    0.017955853    0.017172579
      8        6          -0.022957335   -0.008565284    0.005746213
      9        1           0.004532043    0.005351380   -0.002093687
     10        1          -0.000722271    0.000340568   -0.002715989
     11        6          -0.020205974   -0.028220099    0.022202492
     12        1           0.003889805   -0.006472791   -0.010503993
     13        1          -0.003150390   -0.023620870    0.011390246
     14        7          -0.001750805   -0.011647461    0.002319389
     15        6           0.000229547   -0.003731724    0.000221921
     16        1          -0.002627432    0.002965147    0.002505251
     17        1           0.004961755    0.001266019    0.000262485
     18        1           0.003938477   -0.000534578    0.002855144
     19        6          -0.090447203   -0.126334007   -0.228115282
     20        1          -0.074769437    0.051307507   -0.098139226
     21        1          -0.030330454   -0.050906906   -0.043911452
     22        1           0.013268413   -0.023070602   -0.025733174
     23        6          -0.003500781    0.009693755   -0.000639641
     24        1          -0.000718273   -0.000390563   -0.001508774
     25        1           0.001653031    0.001163560    0.001350159
     26        1           0.002433515   -0.001658604   -0.000511537
 -------------------------------------------------------------------
 Cartesian Forces:  Max     0.342332716 RMS     0.058169056

 GradGradGradGradGradGradGradGradGradGradGradGradGradGradGradGradGradGrad
 Berny optimization.
 FormGI is forming the generalized inverse of G from B-inverse, IUseBI=4.
 Internal  Forces:  Max     0.215276903 RMS     0.034351105
 Search for a local minimum.
 Step number   1 out of a maximum of  156
 All quantities printed in internal units (Hartrees-Bohrs-Radians)
 Mixed Optimization -- RFO/linear search
 Second derivative matrix not updated -- first step.
 ITU=  0
     Eigenvalues ---    0.00709   0.00740   0.00834   0.00870   0.00902
     Eigenvalues ---    0.01354   0.01635   0.01914   0.02516   0.02844
     Eigenvalues ---    0.02844   0.03053   0.03489   0.04319   0.04374
     Eigenvalues ---    0.05185   0.05636   0.06257   0.07036   0.07042
     Eigenvalues ---    0.07292   0.07360   0.07506   0.08077   0.09490
     Eigenvalues ---    0.09710   0.10810   0.11378   0.11832   0.11908
     Eigenvalues ---    0.12894   0.13828   0.15919   0.16000   0.16000
     Eigenvalues ---    0.16000   0.16000   0.16000   0.16000   0.16000
     Eigenvalues ---    0.16000   0.16103   0.17564   0.19326   0.25000
     Eigenvalues ---    0.25000   0.27270   0.27776   0.29183   0.32175
     Eigenvalues ---    0.33086   0.33214   0.33812   0.33882   0.34070
     Eigenvalues ---    0.34113   0.34153   0.34167   0.34171   0.34184
     Eigenvalues ---    0.34192   0.34214   0.34252   0.34328   0.34374
     Eigenvalues ---    0.35217   0.35225   0.36364   0.38784   0.49684
     Eigenvalues ---    0.56553   0.71998
 RFO step:  Lambda=-3.23973587D-01 EMin= 7.09176981D-03
 Linear search not attempted -- first point.
 Maximum step size (   0.300) exceeded in Quadratic search.
    -- Step size scaled by   0.456
 Iteration  1 RMS(Cart)=  0.06417865 RMS(Int)=  0.00131516
 Iteration  2 RMS(Cart)=  0.00129977 RMS(Int)=  0.00046407
 Iteration  3 RMS(Cart)=  0.00000286 RMS(Int)=  0.00046406
 Iteration  4 RMS(Cart)=  0.00000000 RMS(Int)=  0.00046406
 Variable       Old X    -DE/DX   Delta X   Delta X   Delta X     New X
                                 (Linear)    (Quad)   (Total)
    R1        2.05311  -0.00240   0.00000  -0.00162  -0.00162   2.05149
    R2        2.05323  -0.00288   0.00000  -0.00194  -0.00194   2.05129
    R3        2.53778  -0.00518   0.00000  -0.00266  -0.00266   2.53512
    R4        2.81977   0.05104   0.00000   0.03550   0.03550   2.85527
    R5        2.83826   0.00817   0.00000   0.00577   0.00577   2.84403
    R6        2.30631   0.09774   0.00000   0.03642   0.03501   2.34132
    R7        2.57337   0.00300   0.00000   0.00226   0.00263   2.57601
    R8        3.24579   0.21528   0.00000   0.18182   0.18249   3.42828
    R9        2.02195   0.19735   0.00000   0.14334   0.14418   2.16612
   R10        2.71616   0.04493   0.00000   0.02837   0.02886   2.74502
   R11        2.07140  -0.00208   0.00000  -0.00143  -0.00143   2.06997
   R12        2.06906  -0.00283   0.00000  -0.00193  -0.00193   2.06713
   R13        2.90519   0.00610   0.00000   0.00369   0.00369   2.90888
   R14        2.07530  -0.00145   0.00000  -0.00100  -0.00100   2.07431
   R15        2.07648  -0.01164   0.00000  -0.00803  -0.00803   2.06846
   R16        2.79163   0.02492   0.00000   0.01424   0.01374   2.80537
   R17        2.76816  -0.00637   0.00000  -0.00423  -0.00423   2.76393
   R18        2.76926   0.04272   0.00000   0.02817   0.02764   2.79690
   R19        2.07049   0.00443   0.00000   0.00304   0.00304   2.07353
   R20        2.07073  -0.00171   0.00000  -0.00117  -0.00117   2.06956
   R21        2.06781  -0.00058   0.00000  -0.00039  -0.00039   2.06741
   R22        2.07178   0.15001   0.00000   0.10858   0.10845   2.18022
   R23        2.06971  -0.01935   0.00000  -0.01326  -0.01326   2.05645
   R24        2.07213   0.01639   0.00000   0.01125   0.01125   2.08338
   R25        2.07020  -0.00090   0.00000  -0.00062  -0.00062   2.06958
   R26        2.07007  -0.00184   0.00000  -0.00126  -0.00126   2.06881
   R27        2.06703  -0.00247   0.00000  -0.00169  -0.00169   2.06535
    A1        2.03473   0.00179   0.00000   0.00169   0.00169   2.03642
    A2        2.13958  -0.00002   0.00000  -0.00002  -0.00002   2.13956
    A3        2.10887  -0.00177   0.00000  -0.00167  -0.00167   2.10720
    A4        2.13913  -0.00541   0.00000  -0.00430  -0.00430   2.13484
    A5        2.10819   0.00105   0.00000   0.00083   0.00083   2.10902
    A6        2.03585   0.00437   0.00000   0.00347   0.00347   2.03932
    A7        2.14503   0.02326   0.00000   0.01468   0.01182   2.15685
    A8        1.95687  -0.00047   0.00000  -0.00062  -0.00023   1.95664
    A9        1.52016   0.03214   0.00000   0.03878   0.03911   1.55927
   A10        2.18125  -0.02239   0.00000  -0.01360  -0.01275   2.16850
   A11        1.22294   0.05652   0.00000   0.04956   0.04937   1.27231
   A12        2.00254  -0.04573   0.00000  -0.03978  -0.04014   1.96240
   A13        1.48844  -0.03166   0.00000  -0.01679  -0.01780   1.47065
   A14        1.96940   0.02156   0.00000   0.02330   0.02404   1.99344
   A15        1.90715  -0.01899   0.00000  -0.02028  -0.02038   1.88677
   A16        1.88411  -0.00643   0.00000  -0.00312  -0.00321   1.88091
   A17        1.92074   0.03276   0.00000   0.03035   0.03050   1.95125
   A18        1.91471   0.00280   0.00000   0.00138   0.00133   1.91604
   A19        1.91420  -0.00751   0.00000  -0.00394  -0.00360   1.91060
   A20        1.92264  -0.00272   0.00000  -0.00452  -0.00491   1.91773
   A21        1.90911   0.01168   0.00000   0.01001   0.01027   1.91938
   A22        1.87221  -0.01105   0.00000  -0.01171  -0.01181   1.86041
   A23        1.98927  -0.00607   0.00000  -0.00260  -0.00283   1.98644
   A24        1.84411  -0.00350   0.00000  -0.00354  -0.00354   1.84057
   A25        1.93859  -0.00515   0.00000  -0.00466  -0.00455   1.93404
   A26        1.90371   0.01407   0.00000   0.01219   0.01219   1.91590
   A27        1.96007  -0.02280   0.00000  -0.02018  -0.02020   1.93986
   A28        1.92647   0.03038   0.00000   0.02971   0.02886   1.95533
   A29        1.90989   0.00682   0.00000   0.00776   0.00847   1.91836
   A30        1.95623   0.00386   0.00000   0.00361   0.00361   1.95984
   A31        1.93037  -0.00561   0.00000  -0.00526  -0.00526   1.92511
[...]
 **** Fit       0.009818
 **** Fit       0.010206
 **** Fit       0.009180
 **** Fit       0.007378
 **** Fit       0.005635
 **** Fit       0.004309
 **** Fit       0.003341
 **** Fit       0.002580
 **** Fit       0.001932
 **** Fit       0.001724
 **** Fit       0.002161
 **** Fit       0.002751
 **** Fit       0.003554
 **** Fit       0.004583
 **** Fit       0.005698
 **** Fit       0.006531
 **** Fit       0.006649
 **** Fit       0.005965
 **** Fit       0.004876
 **** Fit       0.003846
 **** Fit       0.003049
 **** Fit       0.002429
 **** Fit       0.001889
 **** Fit       0.001383
 **** Fit       0.001197
 **** Fit       0.001510
 **** Fit       0.001911
 **** Fit       0.002425
 **** Fit       0.003036
 **** Fit       0.003639
 **** Fit       0.004040
 **** Fit       0.004070
 **** Fit       0.003738
 **** Fit       0.003232
 **** Fit       0.002732
 **** Fit       0.002294
 **** Fit       0.001883
 **** Fit       0.001462
 **** Fit       0.001028
 **** Fit       0.000610
 **** Fit       0.000673
 **** Fit       0.000898
 **** Fit       0.001176
 **** Fit       0.001522
 **** Fit       0.001924
 **** Fit       0.002324
 **** Fit       0.002639
 **** Fit       0.002809
 **** Fit       0.002821
 **** Fit       0.002695
 **** Fit       0.002454
 **** Fit       0.002124
 **** Fit       0.001730
 **** Fit       0.001294
 **** Fit       0.000847
 **** Fit       0.000424
 **** Fit       0.000320
 **** Fit       0.000531
 **** Fit       0.000807
 **** Fit       0.001158
 **** Fit       0.001576
 **** Fit       0.002038
 **** Fit       0.002493
 **** Fit       0.002839
 **** Fit       0.002949
 **** Fit       0.002769
 **** Fit       0.002362
 **** Fit       0.001841
 **** Fit       0.001293
 **** Fit       0.000771
 **** Fit       0.000306
 **** Fit      -0.000055
 **** Fit       0.000209
 **** Fit       0.000590
 **** Fit       0.001116
 **** Fit       0.001786
 **** Fit       0.002521
 **** Fit       0.003127
 **** Fit       0.003373
 **** Fit       0.003176
 **** Fit       0.002648
 **** Fit       0.001977
 **** Fit       0.001304
 **** Fit       0.000700
 **** Fit       0.000190
 **** Fit      -0.000609
 **** Fit      -0.000339
 **** Fit       0.000083
 **** Fit       0.000697
 **** Fit       0.001500
 **** Fit       0.002381
 **** Fit       0.003103
 **** Fit       0.003409
 **** Fit       0.003212
 **** Fit       0.002639
 **** Fit       0.001906
 **** Fit       0.001178
 **** Fit       0.000539
 **** Fit       0.000015
 **** Fit      -0.001150
 **** Fit      -0.000884
 **** Fit      -0.000454
 **** Fit       0.000173
 **** Fit       0.000978
 **** Fit       0.001843
 **** Fit       0.002543
 **** Fit       0.002855
 **** Fit       0.002703
 **** Fit       0.002194
 **** Fit       0.001519
 **** Fit       0.000837
 **** Fit       0.000237
 **** Fit      -0.000251
 **** Fit      -0.001684
 **** Fit      -0.001445
 **** Fit      -0.001053
 **** Fit      -0.000489
 **** Fit       0.000218
 **** Fit       0.000959
 **** Fit       0.001556
 **** Fit       0.001844
 **** Fit       0.001763
 **** Fit       0.001385
 **** Fit       0.000853
 **** Fit       0.000296
 **** Fit      -0.000203
 **** Fit      -0.002011
 **** Fit      -0.001691
 **** Fit      -0.001234
 **** Fit      -0.000672
 **** Fit      -0.000092
 **** Fit       0.000381
 **** Fit       0.000634
 **** Fit       0.000622
 **** Fit       0.000389
 **** Fit       0.000026
 **** Fit      -0.000371
 **** Fit      -0.000736
 **** Fit      -0.002321
 **** Fit      -0.001982
 **** Fit      -0.001567
 **** Fit      -0.001138
 **** Fit      -0.000779
 **** Fit      -0.000562
 **** Fit      -0.000518
 **** Fit      -0.000627
 **** Fit      -0.000833
 **** Fit      -0.001074
 **** Fit      -0.002666
 **** Fit      -0.002377
 **** Fit      -0.002072
 **** Fit      -0.001803
 **** Fit      -0.001617
 **** Fit      -0.001535
 **** Fit      -0.001550
 **** Fit       0.006522
 **** Fit       0.007078
 **** Fit       0.007515
 **** Fit       0.007796
 **** Fit       0.007903
 **** Fit       0.005545
 **** Fit       0.006301
 **** Fit       0.007026
 **** Fit       0.007645
 **** Fit       0.008092
 **** Fit       0.008324
 **** Fit       0.008332
 **** Fit       0.008135
 **** Fit       0.007761
 **** Fit       0.004986
 **** Fit       0.005827
 **** Fit       0.006711
 **** Fit       0.007555
 **** Fit       0.008252
 **** Fit       0.008700
 **** Fit       0.008847
 **** Fit       0.008706
 **** Fit       0.008330
 **** Fit       0.007787
 **** Fit       0.007131
 **** Fit       0.004256
 **** Fit       0.005089
 **** Fit       0.006047
 **** Fit       0.007080
 **** Fit       0.008073
 **** Fit       0.008867
 **** Fit       0.009310
 **** Fit       0.009335
 **** Fit       0.008990
 **** Fit       0.008388
 **** Fit       0.007646
 **** Fit       0.006842
 **** Fit       0.006023
 **** Fit       0.004181
 **** Fit       0.005077
 **** Fit       0.006143
 **** Fit       0.007325
 **** Fit       0.008480
 **** Fit       0.009385
 **** Fit       0.009818
 **** Fit       0.009692
 **** Fit       0.009103
 **** Fit       0.008251
 **** Fit       0.007310
 **** Fit       0.006376
 **** Fit       0.005490
 **** Fit       0.003255
 **** Fit       0.003984
 **** Fit       0.004903
 **** Fit       0.006029
 **** Fit       0.007317
 **** Fit       0.008603
 **** Fit       0.009599
 **** Fit       0.010010
 **** Fit       0.009725
 **** Fit       0.008904
 **** Fit       0.007834
 **** Fit       0.006745
 **** Fit       0.005738
 **** Fit       0.004834
 **** Fit       0.002963
 **** Fit       0.003651
 **** Fit       0.004532
 **** Fit       0.005635
 **** Fit       0.006924
 **** Fit       0.008231
 **** Fit       0.009238
 **** Fit       0.009597
 **** Fit       0.009191
 **** Fit       0.008228
 **** Fit       0.007060
 **** Fit       0.005937
 **** Fit       0.004949
 **** Fit       0.004095
 **** Fit       0.003351
 **** Fit       0.002587
 **** Fit       0.003194
 **** Fit       0.003972
 **** Fit       0.004949
 **** Fit       0.006097
 **** Fit       0.007262
 **** Fit       0.008141
 **** Fit       0.008408
 **** Fit       0.007961
 **** Fit       0.007023
 **** Fit       0.005938
 **** Fit       0.004933
 **** Fit       0.004070
 **** Fit       0.003330
 **** Fit       0.002685
 **** Fit       0.002150
 **** Fit       0.002651
 **** Fit       0.003280
 **** Fit       0.004057
 **** Fit       0.004951
 **** Fit       0.005835
 **** Fit       0.006473
 **** Fit       0.006623
 **** Fit       0.006229
 **** Fit       0.005477
 **** Fit       0.004636
 **** Fit       0.003866
 **** Fit       0.003199
 **** Fit       0.002611
 **** Fit       0.002081
 **** Fit       0.001678
 **** Fit       0.002068
 **** Fit       0.002543
 **** Fit       0.003105
 **** Fit       0.003722
 **** Fit       0.004301
 **** Fit       0.004687
 **** Fit       0.004746
 **** Fit       0.004465
 **** Fit       0.003974
 **** Fit       0.003431
 **** Fit       0.002922
 **** Fit       0.002454
 **** Fit       0.002010
 **** Fit       0.001490
 **** Fit       0.001834
 **** Fit       0.002223
 **** Fit       0.002628
 **** Fit       0.002986
 **** Fit       0.003214
 **** Fit       0.003254
 **** Fit       0.003115
 **** Fit       0.002864
 **** Fit       0.002568
 **** Fit       0.002256
 **** Fit       0.001925
 **** Fit       0.001573
 **** Fit       0.001207
 **** Fit       0.000937
 **** Fit       0.001190
 **** Fit       0.001472
 **** Fit       0.001762
 **** Fit       0.002026
 **** Fit       0.002225
 **** Fit       0.002332
 **** Fit       0.002346
 **** Fit       0.002275
 **** Fit       0.002129
 **** Fit       0.001911
 **** Fit       0.001629
 **** Fit       0.001300
 **** Fit       0.000949
 **** Fit       0.000615
 **** Fit       0.000847
 **** Fit       0.001106
 **** Fit       0.001377
 **** Fit       0.001643
 **** Fit       0.001876
 **** Fit       0.002040
 **** Fit       0.002094
 **** Fit       0.002012
 **** Fit       0.001802
 **** Fit       0.001497
 **** Fit       0.001139
 **** Fit       0.000767
 **** Fit       0.000310
 **** Fit       0.000583
 **** Fit       0.000910
 **** Fit       0.001275
 **** Fit       0.001639
 **** Fit       0.001926
 **** Fit       0.002058
 **** Fit       0.001995
 **** Fit       0.001757
 **** Fit       0.001404
 **** Fit       0.001001
 **** Fit       0.000601
 **** Fit      -0.000183
 **** Fit       0.000112
 **** Fit       0.000489
 **** Fit       0.000931
 **** Fit       0.001378
 **** Fit       0.001737
 **** Fit       0.001911
 **** Fit       0.001856
 **** Fit       0.001602
 **** Fit       0.001224
 **** Fit       0.000801
 **** Fit       0.000391
 **** Fit      -0.000667
 **** Fit      -0.000366
 **** Fit       0.000027
 **** Fit       0.000488
 **** Fit       0.000954
 **** Fit       0.001328
 **** Fit       0.001515
 **** Fit       0.001476
 **** Fit       0.001242
 **** Fit       0.000887
 **** Fit       0.000487
 **** Fit       0.000102
 **** Fit      -0.001155
 **** Fit      -0.000875
 **** Fit      -0.000507
 **** Fit      -0.000078
 **** Fit       0.000351
 **** Fit       0.000696
 **** Fit       0.000879
 **** Fit       0.000867
 **** Fit       0.000685
 **** Fit       0.000392
 **** Fit       0.000056
 **** Fit      -0.001405
 **** Fit      -0.001092
 **** Fit      -0.000729
 **** Fit      -0.000366
 **** Fit      -0.000071
 **** Fit       0.000099
 **** Fit       0.000118
 **** Fit       0.000000
 **** Fit      -0.000208
 **** Fit      -0.000457
 **** Fit      -0.001683
 **** Fit      -0.001397
 **** Fit      -0.001109
 **** Fit      -0.000868
 **** Fit      -0.000714
 **** Fit      -0.000668
 **** Fit      -0.000721
 **** Fit      -0.001612
 **** Fit      -0.001475
 **** Fit       0.006067
 **** Fit       0.006522
 **** Fit       0.006845
 **** Fit       0.007007
 **** Fit       0.007002
 **** Fit       0.005112
 **** Fit       0.005767
 **** Fit       0.006374
 **** Fit       0.006865
 **** Fit       0.007182
 **** Fit       0.007293
 **** Fit       0.007201
 **** Fit       0.006935
 **** Fit       0.004503
 **** Fit       0.005214
 **** Fit       0.005942
 **** Fit       0.006616
 **** Fit       0.007144
 **** Fit       0.007448
 **** Fit       0.007491
 **** Fit       0.007291
 **** Fit       0.006903
 **** Fit       0.006393
 **** Fit       0.004444
 **** Fit       0.005204
 **** Fit       0.005994
 **** Fit       0.006725
 **** Fit       0.007284
 **** Fit       0.007566
 **** Fit       0.007532
 **** Fit       0.007217
 **** Fit       0.006709
 **** Fit       0.006097
 **** Fit       0.005447
 **** Fit       0.003574
 **** Fit       0.004259
 **** Fit       0.005036
 **** Fit       0.005854
 **** Fit       0.006614
 **** Fit       0.007181
 **** Fit       0.007433
 **** Fit       0.007324
 **** Fit       0.006912
 **** Fit       0.006312
 **** Fit       0.005635
 **** Fit       0.004950
 **** Fit       0.004292
 **** Fit       0.003280
 **** Fit       0.003932
 **** Fit       0.004678
 **** Fit       0.005469
 **** Fit       0.006204
 **** Fit       0.006741
 **** Fit       0.006948
 **** Fit       0.006785
 **** Fit       0.006322
 **** Fit       0.005691
 **** Fit       0.005010
 **** Fit       0.004343
 **** Fit       0.003719
 **** Fit       0.002891
 **** Fit       0.003473
 **** Fit       0.004136
 **** Fit       0.004837
 **** Fit       0.005482
 **** Fit       0.005940
 **** Fit       0.006092
 **** Fit       0.005908
 **** Fit       0.005461
 **** Fit       0.004878
 **** Fit       0.004263
 **** Fit       0.003670
 **** Fit       0.003116
 **** Fit       0.002432
 **** Fit       0.002918
 **** Fit       0.003463
 **** Fit       0.004028
 **** Fit       0.004536
 **** Fit       0.004882
 **** Fit       0.004979
 **** Fit       0.004811
 **** Fit       0.004442
 **** Fit       0.003971
 **** Fit       0.003476
 **** Fit       0.002994
 **** Fit       0.002533
 **** Fit       0.001936
 **** Fit       0.002321
 **** Fit       0.002740
 **** Fit       0.003162
 **** Fit       0.003527
 **** Fit       0.003767
 **** Fit       0.003827
 **** Fit       0.003704
 **** Fit       0.003445
 **** Fit       0.003114
 **** Fit       0.002754
 **** Fit       0.002387
 **** Fit       0.002018
 **** Fit       0.001731
 **** Fit       0.002045
 **** Fit       0.002351
 **** Fit       0.002611
 **** Fit       0.002783
 **** Fit       0.002839
 **** Fit       0.002782
 **** Fit       0.002634
 **** Fit       0.002427
 **** Fit       0.002180
 **** Fit       0.001902
 **** Fit       0.001176
 **** Fit       0.001419
 **** Fit       0.001657
 **** Fit       0.001867
 **** Fit       0.002025
 **** Fit       0.002114
 **** Fit       0.002131
 **** Fit       0.002077
 **** Fit       0.001959
 **** Fit       0.001781
 **** Fit       0.001551
 **** Fit       0.001283
 **** Fit       0.000871
 **** Fit       0.001083
 **** Fit       0.001291
 **** Fit       0.001477
 **** Fit       0.001625
 **** Fit       0.001716
 **** Fit       0.001734
 **** Fit       0.001668
 **** Fit       0.001518
 **** Fit       0.001301
 **** Fit       0.001040
 **** Fit       0.000596
 **** Fit       0.000826
 **** Fit       0.001058
 **** Fit       0.001268
 **** Fit       0.001424
 **** Fit       0.001491
 **** Fit       0.001451
 **** Fit       0.001309
 **** Fit       0.001088
 **** Fit       0.000821
 **** Fit       0.000151
 **** Fit       0.000404
 **** Fit       0.000674
 **** Fit       0.000930
 **** Fit       0.001127
 **** Fit       0.001225
 **** Fit       0.001202
 **** Fit       0.001064
 **** Fit       0.000843
 **** Fit       0.000577
 **** Fit      -0.000287
 **** Fit      -0.000026
 **** Fit       0.000258
 **** Fit       0.000531
 **** Fit       0.000745
 **** Fit       0.000858
 **** Fit       0.000849
 **** Fit       0.000727
 **** Fit       0.000523
 **** Fit      -0.000486
 **** Fit      -0.000214
 **** Fit       0.000049
 **** Fit       0.000258
 **** Fit       0.000376
 **** Fit       0.000383
 **** Fit       0.000288
 **** Fit       0.000119
 **** Fit      -0.000728
 **** Fit      -0.000495
 **** Fit      -0.000305
 **** Fit      -0.000190
 **** Fit      -0.000165
 **** Fit      -0.000224
 **** Fit       0.005757
 **** Fit       0.005987
 **** Fit       0.006072
 **** Fit       0.005023
 **** Fit       0.005494
 **** Fit       0.005860
 **** Fit       0.006077
 **** Fit       0.006122
 **** Fit       0.006003
 **** Fit       0.005748
 **** Fit       0.004432
 **** Fit       0.004981
 **** Fit       0.005471
 **** Fit       0.005841
 **** Fit       0.006038
 **** Fit       0.006040
 **** Fit       0.005863
 **** Fit       0.005545
 **** Fit       0.005135
 **** Fit       0.004250
 **** Fit       0.004800
 **** Fit       0.005290
 **** Fit       0.005649
 **** Fit       0.005821
 **** Fit       0.005784
 **** Fit       0.005560
 **** Fit       0.005199
 **** Fit       0.004758
 **** Fit       0.003412
 **** Fit       0.003937
 **** Fit       0.004461
 **** Fit       0.004923
 **** Fit       0.005253
 **** Fit       0.005395
 **** Fit       0.005329
 **** Fit       0.005082
 **** Fit       0.004710
 **** Fit       0.004270
 **** Fit       0.003806
 **** Fit       0.003032
 **** Fit       0.003504
 **** Fit       0.003970
 **** Fit       0.004377
 **** Fit       0.004661
 **** Fit       0.004770
 **** Fit       0.004691
 **** Fit       0.004451
 **** Fit       0.004105
 **** Fit       0.003702
 **** Fit       0.003281
 **** Fit       0.002582
 **** Fit       0.002982
 **** Fit       0.003372
 **** Fit       0.003705
 **** Fit       0.003932
 **** Fit       0.004012
 **** Fit       0.003938
 **** Fit       0.003734
 **** Fit       0.003443
 **** Fit       0.003105
 **** Fit       0.002747
 **** Fit       0.002419
 **** Fit       0.002729
 **** Fit       0.002990
 **** Fit       0.003165
 **** Fit       0.003228
 **** Fit       0.003174
 **** Fit       0.003022
 **** Fit       0.002801
 **** Fit       0.002537
 **** Fit       0.001862
 **** Fit       0.002106
 **** Fit       0.002311
 **** Fit       0.002452
 **** Fit       0.002514
 **** Fit       0.002492
 **** Fit       0.002397
 **** Fit       0.002244
 **** Fit       0.002046
 **** Fit       0.001539
 **** Fit       0.001714
 **** Fit       0.001846
 **** Fit       0.001923
 **** Fit       0.001940
 **** Fit       0.001898
 **** Fit       0.001798
 **** Fit       0.001649
 **** Fit       0.001349
 **** Fit       0.001454
 **** Fit       0.001511
 **** Fit       0.001511
 **** Fit       0.001451
 **** Fit       0.001331
 **** Fit       0.000928
 **** Fit       0.001064
 **** Fit       0.001157
 **** Fit       0.001189
 **** Fit       0.001154
 **** Fit       0.001052
 **** Fit       0.000540
 **** Fit       0.000700
 **** Fit       0.000817
 **** Fit       0.000873
 **** Fit       0.000855
 **** Fit       0.000767
 **** Fit       0.000318
 **** Fit       0.000449
 **** Fit       0.000519
 **** Fit       0.000516
 **** Fit       0.004797
 **** Fit       0.004942
 **** Fit       0.004959
 **** Fit       0.004346
 **** Fit       0.004592
 **** Fit       0.004718
 **** Fit       0.004712
 **** Fit       0.004582
 **** Fit       0.003717
 **** Fit       0.004032
 **** Fit       0.004257
 **** Fit       0.004363
 **** Fit       0.004340
 **** Fit       0.004198
 **** Fit       0.003328
 **** Fit       0.003608
 **** Fit       0.003804
 **** Fit       0.003890
 **** Fit       0.003858
 **** Fit       0.003719
 **** Fit       0.003498
 **** Fit       0.002866
 **** Fit       0.003105
 **** Fit       0.003269
 **** Fit       0.003339
 **** Fit       0.003308
 **** Fit       0.003186
 **** Fit       0.002567
 **** Fit       0.002704
 **** Fit       0.002763
 **** Fit       0.002742
 **** Fit       0.002648
 **** Fit       0.002157
 **** Fit       0.002216
 **** Fit       0.002211
 -----------------------------------------------------------------
 Leave Link  602 at Thu Apr 21 16:55:33 2022, MaxMem=   104857600 cpu:               2.3 elap:               2.3
 (Enter /opt/ohpc/pub/libs/gaussian/g16-A.03/haswell/g16/l9999.exe)

 Test job not archived.
 1\1\GINC-CASCADEB037\SP\RB3LYP\6-311++G(d,p)\C8H15N1O2\MNG228\21-Apr-2
 022\0\\#P B3LYP/6-311++G(d,p) Geom=Allcheck SCF=Tight EmpiricalDispers
 ion=GD3BJ Pop=CHELPG SP IOp(6/33=2)\\DMAEMA geo opt\\0,1\H,0,1.1315636
 471,-1.4465153964,-1.8274710748\C,0,1.2585084478,-0.3865034238,-1.6549
 620196\H,0,1.711502905,0.2022096147,-2.4448180697\C,0,0.8762010503,0.1
 843736285,-0.509400583\C,0,0.2480569179,-0.6180605282,0.5826711796\O,0
 ,-0.1138488422,-0.1383328078,1.6346087573\O,0,0.1253902704,-1.92780746
 31,0.2809986256\C,0,-0.508647473,-2.7704269759,1.2728757743\H,0,-0.141
 5409687,-3.7733915195,1.0585737191\H,0,-0.1767794253,-2.4492570937,2.2
 602195565\C,0,-2.0298009148,-2.7409778899,1.2032867354\H,0,-2.39133288
 22,-3.1645386558,2.1451787105\H,0,-2.3737801597,-1.6919759383,1.175575
 9402\N,0,-2.5961925399,-3.5377550622,0.1184531457\C,0,-4.0205452851,-3
 .7618519179,0.3296704689\H,0,-4.6081392824,-2.8248493343,0.3227672648\
 H,0,-4.4093745925,-4.4099251041,-0.4588496808\H,0,-4.1817573689,-4.258
 9098307,1.2889985064\C,0,-2.3560179001,-2.9575042643,-1.1991405158\H,0
 ,-2.8048121418,-1.9517589428,-1.3033290149\H,0,-1.2878821999,-2.870527
 1962,-1.3887301247\H,0,-2.791562427,-3.606185426,-1.9621948362\C,0,1.0
 309226582,1.6487989035,-0.2108030157\H,0,1.4935154377,2.1669268856,-1.
 0517630524\H,0,0.06091679,2.1066329598,-0.0006528679\H,0,1.6444362791,
 1.7999127788,0.6810364711\\Version=ES64L-G16RevA.03\State=1-A\HF=-519.
 2539042\RMSD=4.054e-09\Dipole=-0.0405832,-0.1832786,-0.5402279\Quadrup
 ole=1.5687084,-1.1816968,-0.3870116,2.150594,-1.9193556,-4.2739216\PG=
 C01 [X(C8H15N1O2)]\\@


 MARY HAD A LITTLE LAMB
      HIS FEET WERE BLACK AS SOOT,
           AND EVERYWHERE THAT MARY WENT
                HIS SOOTY FOOT HE PUT.

                    -- NONAME
 Job cpu time:       0 days  0 hours  5 minutes 35.8 seconds.
 Elapsed time:       0 days  0 hours  5 minutes 37.2 seconds.
 File lengths (MBytes):  RWF=    304 Int=      0 D2E=      0 Chk=     32 Scr=     32
 Normal termination of Gaussian 16 at Thu Apr 21 16:55:33 2022.
