 Entering Gaussian System, Link 0=g16
 Initial command:
 /opt/ohpc/pub/libs/gaussian/g16-A.03/haswell/g16/l1.exe "g16_scratch/Gau-24084.inp" -scrdir="g16_scratch/"
 Entering Link 1 = /opt/ohpc/pub/libs/gaussian/g16-A.03/haswell/g16/l1.exe PID=     24085.
  
 Copyright (c) 1988,1990,1992,1993,1995,1998,2003,2009,2016,
            Gaussian, Inc.  All Rights Reserved.
  
 This is part of the Gaussian(R) 16 program.  It is based on
 the Gaussian(R) 09 system (copyright 2009, Gaussian, Inc.),
 the Gaussian(R) 03 system (copyright 2003, Gaussian, Inc.),
 the Gaussian(R) 98 system (copyright 1998, Gaussian, Inc.),
 the Gaussian(R) 94 system (copyright 1995, Gaussian, Inc.),
 the Gaussian 92(TM) system (copyright 1992, Gaussian, Inc.),
 the Gaussian 90(TM) system (copyright 1990, Gaussian, Inc.),
 the Gaussian 88(TM) system (copyright 1988, Gaussian, Inc.),
 the Gaussian 86(TM) system (copyright 1986, Carnegie Mellon
 University), and the Gaussian 82(TM) system (copyright 1983,
 Carnegie Mellon University). Gaussian is a federally registered
 trademark of Gaussian, Inc.
  
 This software contains proprietary and confidential information,
 including trade secrets, belonging to Gaussian, Inc.
  
 This software is provided under written license and may be
 used, copied, transmitted, or stored only in accord with that
 written license.
  
 The following legend is applicable only to US Government
 contracts under FAR:
  
                    RESTRICTED RIGHTS LEGEND
  
 Use, reproduction and disclosure by the US Government is
 subject to restrictions as set forth in subparagraphs (a)
 and (c) of the Commercial Computer Software - Restricted
 Rights clause in FAR 52.227-19.
  
 Gaussian, Inc.
 340 Quinnipiac St., Bldg. 40, Wallingford CT 06492
  
  
 ---------------------------------------------------------------
 Warning -- This program may not be used in any manner that
 competes with the business of Gaussian, Inc. or will provide
 assistance to any competitor of Gaussian, Inc.  The licensee
 of this program is prohibited from giving any competitor of
 Gaussian, Inc. access to this program.  By using this program,
 the user acknowledges that Gaussian, Inc. is engaged in the
 business of creating and licensing software in the field of
 computational chemistry and represents and warrants to the
 licensee that it is not a competitor of Gaussian, Inc. and that
 it will not use this program in any manner prohibited above.
 ---------------------------------------------------------------
  

 Cite this work as:
 Gaussian 16, Revision A.03,
 M. J. Frisch, G. W. Trucks, H. B. Schlegel, G. E. Scuseria, 
 M. A. Robb, J. R. Cheeseman, G. Scalmani, V. Barone, 
 G. A. Petersson, H. Nakatsuji, X. Li, M. Caricato, A. V. Marenich, 
 J. Bloino, B. G. Janesko, R. Gomperts, B. Mennucci, H. P. Hratchian, 
 J. V. Ortiz, A. F. Izmaylov, J. L. Sonnenberg, D. Williams-Young, 
 F. Ding, F. Lipparini, F. Egidi, J. Goings, B. Peng, A. Petrone, 
 T. Henderson, D. Ranasinghe, V. G. Zakrzewski, J. Gao, N. Rega, 
 G. Zheng, W. Liang, M. Hada, M. Ehara, K. Toyota, R. Fukuda, 
 J. Hasegawa, M. Ishida, T. Nakajima, Y. Honda, O. Kitao, H. Nakai, 
 T. Vreven, K. Throssell, J. A. Montgomery, Jr., J. E. Peralta, 
 F. Ogliaro, M. J. Bearpark, J. J. Heyd, E. N. Brothers, K. N. Kudin, 
 V. N. Staroverov, T. A. Keith, R. Kobayashi, J. Normand, 
 K. Raghavachari, A. P. Rendell, J. C. Burant, S. S. Iyengar, 
 J. Tomasi, M. Cossi, J. M. Millam, M. Klene, C. Adamo, R. Cammi, 
 J. W. Ochterski, R. L. Martin, K. Morokuma, O. Farkas, 
 J. B. Foresman, and D. J. Fox, Gaussian, Inc., Wallingford CT, 2016.
 
 ******************************************
 Gaussian 16:  ES64L-G16RevA.03 25-Dec-2016
                21-Apr-2022 
 ******************************************
 %Mem=192GB
 %NProcShared=48
 Will use up to   48 processors via shared memory.
 %Chk=DMAEMA-4.chk
 ---------------------------------------------------------------------
 #n B3LYP/6-311++G(d,p) Opt freq EmpiricalDispersion=GD3BJ IOp(6/33=2)
 ---------------------------------------------------------------------
 1/18=20,19=15,26=3,38=1/1,3;
 2/9=110,12=2,17=6,18=5,40=1/2;
 3/5=4,6=6,7=1111,11=2,25=1,30=1,71=1,74=-5,124=41/1,2,3;
 4//1;
 5/5=2,38=5/2;
 6/7=2,8=2,9=2,10=2,28=1,33=2/1;
 7//1,2,3,16;
 1/18=20,19=15,26=3/3(2);
 2/9=110/2;
 99//99;
 2/9=110/2;
 3/5=4,6=6,7=1111,11=2,25=1,30=1,71=1,74=-5,124=41/1,2,3;
 4/5=5,16=3,69=1/1;
 5/5=2,38=5/2;
 7//1,2,3,16;
 1/18=20,19=15,26=3/3(-5);
 2/9=110/2;
 6/7=2,8=2,9=2,10=2,19=2,28=1,33=2/1;
 99/9=1/99;
 --------------
 DMAEMA geo opt
 --------------
 Symbolic Z-matrix:
 Charge =  0 Multiplicity = 1
 H                    -0.4398   -0.2987    2.1523 
 C                    -0.6138    0.2716    1.2441 
 H                    -0.9079    1.3098    1.3706 
 C                    -0.4757   -0.26      0.0186 
 C                    -0.0674   -1.6785   -0.2002 
 O                    -0.2733   -2.2739   -1.2454 
 O                     0.5591   -2.2054    0.8881 
 C                    -0.1173   -3.3578    1.4176 
 H                     0.138    -4.2363    0.8138 
 H                     0.2239   -3.5058    2.4474 
 C                    -1.6382   -3.1351    1.3902 
 H                    -1.9766   -3.0582    0.3483 
 H                    -2.1083   -4.045     1.7884 
 N                    -2.0891   -1.9725    2.1823 
 C                    -3.5421   -1.7945    2.1307 
 H                    -4.0787   -2.6823    2.4832 
 H                    -3.8478   -0.9393    2.7439 
 H                    -3.8796   -1.561     1.1163 
 C                    -1.664    -2.1101    3.578 
 H                    -2.1028   -2.9928    4.0579 
 H                    -0.5734   -2.182     3.6483 
 H                    -1.9561   -1.2259    4.1568 
 C                    -0.7227    0.567    -1.2106 
 H                    -1.7556    0.9317   -1.2249 
 H                    -0.048     1.4298   -1.2306 
 H                    -0.5632    0.0122   -2.1397 
 

 GradGradGradGradGradGradGradGradGradGradGradGradGradGradGradGradGradGrad
 Berny optimization.
 Initialization pass.
                           ----------------------------
                           !    Initial Parameters    !
                           ! (Angstroms and Degrees)  !
 --------------------------                            --------------------------
 ! Name  Definition              Value          Derivative Info.                !
 --------------------------------------------------------------------------------
 ! R1    R(1,2)                  1.0864         estimate D2E/DX2                !
 ! R2    R(2,3)                  1.0864         estimate D2E/DX2                !
 ! R3    R(2,4)                  1.343          estimate D2E/DX2                !
 ! R4    R(4,5)                  1.4922         estimate D2E/DX2                !
 ! R5    R(4,23)                 1.502          estimate D2E/DX2                !
 ! R6    R(5,6)                  1.2204         estimate D2E/DX2                !
 ! R7    R(5,7)                  1.3618         estimate D2E/DX2                !
 ! R8    R(7,8)                  1.4373         estimate D2E/DX2                !
 ! R9    R(8,9)                  1.0961         estimate D2E/DX2                !
 ! R10   R(8,10)                 1.0949         estimate D2E/DX2                !
 ! R11   R(8,11)                 1.5374         estimate D2E/DX2                !
 ! R12   R(11,12)                1.0982         estimate D2E/DX2                !
 ! R13   R(11,13)                1.0989         estimate D2E/DX2                !
 ! R14   R(11,14)                1.4773         estimate D2E/DX2                !
 ! R15   R(14,15)                1.4648         estimate D2E/DX2                !
 ! R16   R(14,19)                1.4655         estimate D2E/DX2                !
 ! R17   R(15,16)                1.0956         estimate D2E/DX2                !
 ! R18   R(15,17)                1.0958         estimate D2E/DX2                !
 ! R19   R(15,18)                1.0943         estimate D2E/DX2                !
 ! R20   R(19,20)                1.0964         estimate D2E/DX2                !
 ! R21   R(19,21)                1.0952         estimate D2E/DX2                !
 ! R22   R(19,22)                1.0964         estimate D2E/DX2                !
 ! R23   R(23,24)                1.0955         estimate D2E/DX2                !
 ! R24   R(23,25)                1.0955         estimate D2E/DX2                !
 ! R25   R(23,26)                1.0938         estimate D2E/DX2                !
 ! A1    A(1,2,3)              116.5923         estimate D2E/DX2                !
 ! A2    A(1,2,4)              122.5867         estimate D2E/DX2                !
 ! A3    A(3,2,4)              120.8209         estimate D2E/DX2                !
 ! A4    A(2,4,5)              122.5631         estimate D2E/DX2                !
 ! A5    A(2,4,23)             120.7941         estimate D2E/DX2                !
 ! A6    A(5,4,23)             116.6418         estimate D2E/DX2                !
 ! A7    A(4,5,6)              122.9011         estimate D2E/DX2                !
 ! A8    A(4,5,7)              112.1169         estimate D2E/DX2                !
 ! A9    A(6,5,7)              124.9801         estimate D2E/DX2                !
 ! A10   A(5,7,8)              112.8375         estimate D2E/DX2                !
 ! A11   A(7,8,9)              109.2714         estimate D2E/DX2                !
 ! A12   A(7,8,10)             107.9516         estimate D2E/DX2                !
 ! A13   A(7,8,11)             110.0505         estimate D2E/DX2                !
 ! A14   A(9,8,10)             109.705          estimate D2E/DX2                !
 ! A15   A(9,8,11)             109.6756         estimate D2E/DX2                !
 ! A16   A(10,8,11)            110.1594         estimate D2E/DX2                !
 ! A17   A(8,11,12)            109.3842         estimate D2E/DX2                !
 ! A18   A(8,11,13)            107.2668         estimate D2E/DX2                !
 ! A19   A(8,11,14)            113.9788         estimate D2E/DX2                !
 ! A20   A(12,11,13)           105.6622         estimate D2E/DX2                !
 ! A21   A(12,11,14)           111.0725         estimate D2E/DX2                !
 ! A22   A(13,11,14)           109.0734         estimate D2E/DX2                !
 ! A23   A(11,14,15)           112.3037         estimate D2E/DX2                !
 ! A24   A(11,14,19)           110.3788         estimate D2E/DX2                !
 ! A25   A(15,14,19)           109.4331         estimate D2E/DX2                !
 ! A26   A(14,15,16)           112.0879         estimate D2E/DX2                !
 ! A27   A(14,15,17)           110.6005         estimate D2E/DX2                !
 ! A28   A(14,15,18)           111.3788         estimate D2E/DX2                !
 ! A29   A(16,15,17)           108.4042         estimate D2E/DX2                !
 ! A30   A(16,15,18)           108.6692         estimate D2E/DX2                !
 ! A31   A(17,15,18)           105.4362         estimate D2E/DX2                !
 ! A32   A(14,19,20)           112.1094         estimate D2E/DX2                !
 ! A33   A(14,19,21)           110.8637         estimate D2E/DX2                !
 ! A34   A(14,19,22)           110.4729         estimate D2E/DX2                !
 ! A35   A(20,19,21)           108.5173         estimate D2E/DX2                !
 ! A36   A(20,19,22)           108.1545         estimate D2E/DX2                !
 ! A37   A(21,19,22)           106.5196         estimate D2E/DX2                !
 ! A38   A(4,23,24)            110.429          estimate D2E/DX2                !
 ! A39   A(4,23,25)            110.3238         estimate D2E/DX2                !
 ! A40   A(4,23,26)            113.0722         estimate D2E/DX2                !
 ! A41   A(24,23,25)           108.5585         estimate D2E/DX2                !
 ! A42   A(24,23,26)           107.1728         estimate D2E/DX2                !
 ! A43   A(25,23,26)           107.1075         estimate D2E/DX2                !
 ! D1    D(1,2,4,5)             -0.1892         estimate D2E/DX2                !
 ! D2    D(1,2,4,23)          -179.8165         estimate D2E/DX2                !
 ! D3    D(3,2,4,5)            179.6949         estimate D2E/DX2                !
 ! D4    D(3,2,4,23)             0.0676         estimate D2E/DX2                !
 ! D5    D(2,4,5,6)            160.0033         estimate D2E/DX2                !
 ! D6    D(2,4,5,7)            -20.4785         estimate D2E/DX2                !
 ! D7    D(23,4,5,6)           -20.3549         estimate D2E/DX2                !
 ! D8    D(23,4,5,7)           159.1633         estimate D2E/DX2                !
 ! D9    D(2,4,23,24)          -60.5712         estimate D2E/DX2                !
 ! D10   D(2,4,23,25)           59.438          estimate D2E/DX2                !
 ! D11   D(2,4,23,26)          179.3545         estimate D2E/DX2                !
 ! D12   D(5,4,23,24)          119.7803         estimate D2E/DX2                !
 ! D13   D(5,4,23,25)         -120.2105         estimate D2E/DX2                !
 ! D14   D(5,4,23,26)           -0.294          estimate D2E/DX2                !
 ! D15   D(4,5,7,8)            120.4934         estimate D2E/DX2                !
 ! D16   D(6,5,7,8)            -60.0003         estimate D2E/DX2                !
 ! D17   D(5,7,8,9)             80.0001         estimate D2E/DX2                !
 ! D18   D(5,7,8,10)          -160.7415         estimate D2E/DX2                !
 ! D19   D(5,7,8,11)           -40.484          estimate D2E/DX2                !
 ! D20   D(7,8,11,12)           65.0044         estimate D2E/DX2                !
 ! D21   D(7,8,11,13)          179.1501         estimate D2E/DX2                !
 ! D22   D(7,8,11,14)          -60.0009         estimate D2E/DX2                !
 ! D23   D(9,8,11,12)          -55.2357         estimate D2E/DX2                !
 ! D24   D(9,8,11,13)           58.9099         estimate D2E/DX2                !
 ! D25   D(9,8,11,14)          179.7589         estimate D2E/DX2                !
 ! D26   D(10,8,11,12)        -176.0813         estimate D2E/DX2                !
 ! D27   D(10,8,11,13)         -61.9357         estimate D2E/DX2                !
 ! D28   D(10,8,11,14)          58.9133         estimate D2E/DX2                !
 ! D29   D(8,11,14,15)         179.998          estimate D2E/DX2                !
 ! D30   D(8,11,14,19)         -57.5902         estimate D2E/DX2                !
 ! D31   D(12,11,14,15)         55.896          estimate D2E/DX2                !
 ! D32   D(12,11,14,19)        178.3078         estimate D2E/DX2                !
 ! D33   D(13,11,14,15)        -60.1661         estimate D2E/DX2                !
 ! D34   D(13,11,14,19)         62.2457         estimate D2E/DX2                !
 ! D35   D(11,14,15,16)         57.6743         estimate D2E/DX2                !
 ! D36   D(11,14,15,17)        178.7747         estimate D2E/DX2                !
 ! D37   D(11,14,15,18)        -64.3207         estimate D2E/DX2                !
 ! D38   D(19,14,15,16)        -65.2714         estimate D2E/DX2                !
 ! D39   D(19,14,15,17)         55.829          estimate D2E/DX2                !
 ! D40   D(19,14,15,18)        172.7336         estimate D2E/DX2                !
 ! D41   D(11,14,19,20)        -61.9931         estimate D2E/DX2                !
 ! D42   D(11,14,19,21)         59.4526         estimate D2E/DX2                !
 ! D43   D(11,14,19,22)        177.2993         estimate D2E/DX2                !
 ! D44   D(15,14,19,20)         62.0884         estimate D2E/DX2                !
 ! D45   D(15,14,19,21)       -176.466          estimate D2E/DX2                !
 ! D46   D(15,14,19,22)        -58.6192         estimate D2E/DX2                !
 --------------------------------------------------------------------------------
 Trust Radius=3.00D-01 FncErr=1.00D-07 GrdErr=1.00D-06 EigMax=2.50D+02 EigMin=1.00D-04
 Number of steps in this run=    124 maximum allowed number of steps=    156.
 GradGradGradGradGradGradGradGradGradGradGradGradGradGradGradGradGradGrad

                          Input orientation:                          
 ---------------------------------------------------------------------
 Center     Atomic      Atomic             Coordinates (Angstroms)
 Number     Number       Type             X           Y           Z
 ---------------------------------------------------------------------
      1          1           0       -0.439800   -0.298700    2.152300
      2          6           0       -0.613800    0.271600    1.244100
      3          1           0       -0.907900    1.309800    1.370600
      4          6           0       -0.475700   -0.260000    0.018600
      5          6           0       -0.067400   -1.678500   -0.200200
      6          8           0       -0.273300   -2.273900   -1.245400
      7          8           0        0.559100   -2.205400    0.888100
      8          6           0       -0.117300   -3.357800    1.417600
      9          1           0        0.138000   -4.236300    0.813800
     10          1           0        0.223900   -3.505800    2.447400
     11          6           0       -1.638200   -3.135100    1.390200
     12          1           0       -1.976600   -3.058200    0.348300
     13          1           0       -2.108300   -4.045000    1.788400
     14          7           0       -2.089100   -1.972500    2.182300
     15          6           0       -3.542100   -1.794500    2.130700
     16          1           0       -4.078700   -2.682300    2.483200
     17          1           0       -3.847800   -0.939300    2.743900
     18          1           0       -3.879600   -1.561000    1.116300
     19          6           0       -1.664000   -2.110100    3.578000
     20          1           0       -2.102800   -2.992800    4.057900
     21          1           0       -0.573400   -2.182000    3.648300
     22          1           0       -1.956100   -1.225900    4.156800
     23          6           0       -0.722700    0.567000   -1.210600
     24          1           0       -1.755600    0.931700   -1.224900
     25          1           0       -0.048000    1.429800   -1.230600
     26          1           0       -0.563200    0.012200   -2.139700
 ---------------------------------------------------------------------
                    Distance matrix (angstroms):
                    1          2          3          4          5
     1  H    0.000000
     2  C    1.086437   0.000000
     3  H    1.848633   1.086442   0.000000
     4  C    2.134353   1.342952   2.116358   0.000000
     5  C    2.752596   2.487458   3.479050   1.492221   0.000000
     6  O    3.933637   3.576747   4.482084   2.386306   1.220385
     7  O    2.496299   2.763686   3.839470   2.368844   1.361809
     8  C    3.162575   3.667309   4.734316   3.417896   2.332341
     9  H    4.198825   4.590373   5.671257   4.101211   2.759117
    10  H    3.288324   4.051965   5.062655   4.113846   3.230119
    11  C    3.172085   3.560386   4.504538   3.391002   2.668046
    12  H    3.637446   3.707728   4.611577   3.192386   2.418568
    13  H    4.117169   4.600307   5.503581   4.485956   3.704069
    14  N    2.350042   2.844770   3.581562   3.196453   3.138473
    15  C    3.444147   3.691852   4.141671   4.027216   4.185701
    16  H    4.362641   4.718731   5.218114   4.992334   4.929379
    17  H    3.517787   3.764895   3.948090   4.388595   4.848254
    18  H    3.807745   3.747026   4.139706   3.805796   4.034829
    19  C    2.610068   3.496070   4.140050   4.183809   4.124343
    20  H    3.695275   4.559704   5.211692   5.141167   4.899148
    21  H    2.408876   3.435398   4.182401   4.108327   3.914141
    22  H    2.678971   3.539505   3.910423   4.499916   4.770271
    23  C    3.484044   2.474808   2.692331   1.501956   2.548057
    24  H    3.827622   2.799178   2.756479   2.145830   3.273098
    25  H    3.819062   2.790286   2.742275   2.144493   3.274695
    26  H    4.305015   3.394105   3.758296   2.177156   2.620295
                    6          7          8          9         10
     6  O    0.000000
     7  O    2.291158   0.000000
     8  C    2.879365   1.437328   0.000000
     9  H    2.874106   2.075428   1.096136   0.000000
    10  H    3.924482   2.057867   1.094902   1.791552   0.000000
    11  C    3.090470   2.438150   1.537362   2.167894   2.173133
    12  H    2.460942   2.729181   2.165678   2.464983   3.073885
    13  H    3.963327   3.362988   2.138649   2.456075   2.482776
    14  N    3.890642   2.956714   2.528204   3.457970   2.787697
    15  C    4.723656   4.304966   3.831667   4.608660   4.148687
    16  H    5.343250   4.927572   4.157462   4.793993   4.380845
    17  H    5.520210   4.946491   4.639487   5.521059   4.822196
    18  H    4.369354   4.491034   4.180212   4.836305   4.732102
    19  C    5.022556   3.490962   2.935364   3.925396   2.605840
    20  H    5.655871   4.213472   3.323645   4.134206   2.875832
    21  H    4.903754   2.983590   2.562529   3.572202   1.957114
    22  H    5.754466   4.239110   3.928027   4.962198   3.587812
    23  C    2.876436   3.705908   4.762142   5.283057   5.555602
    24  H    3.531785   4.434411   5.297796   5.869433   6.090617
    25  H    3.710576   4.251134   5.471643   6.026513   6.161312
    26  H    2.471855   3.917254   4.920377   5.221551   5.834153
                   11         12         13         14         15
    11  C    0.000000
    12  H    1.098173   0.000000
    13  H    1.098852   1.750716   0.000000
    14  N    1.477285   2.134234   2.109688   0.000000
    15  C    2.443437   2.687876   2.690298   1.464772   0.000000
    16  H    2.712143   3.019590   2.494429   2.133744   1.095621
    17  H    3.396524   3.705405   3.685677   2.115638   1.095826
    18  H    2.752578   2.540244   3.124016   2.124048   1.094274
    19  C    2.416146   3.380470   2.672809   1.465477   2.391974
    20  H    2.711591   3.712322   2.501557   2.135199   2.687305
    21  H    2.672305   3.691436   3.047280   2.119055   3.356553
    22  H    3.376415   4.226395   3.685079   2.115124   2.635106
    23  C    4.616042   4.140593   5.673132   4.452851   4.968902
    24  H    4.836465   4.294543   5.828543   4.489389   4.678012
    25  H    5.498694   5.133670   6.582753   5.233509   5.822644
    26  H    4.849878   4.197047   5.854757   4.994706   5.511291
                   16         17         18         19         20
    16  H    0.000000
    17  H    1.777450   0.000000
    18  H    1.779149   1.742585   0.000000
    19  C    2.712338   2.614475   3.357136   0.000000
    20  H    2.545638   2.998080   3.722913   1.096362   0.000000
    21  H    3.727584   3.617173   4.210418   1.095226   1.778829
    22  H    3.070418   2.378435   3.613417   1.096422   1.775736
    23  C    5.955237   5.260538   4.461935   5.566291   6.506454
    24  H    5.675191   4.860999   4.025686   5.685841   6.590161
    25  H    6.851877   5.987300   5.397590   6.185870   7.193735
    26  H    6.402365   5.961837   4.906628   6.197420   7.057665
                   21         22         23         24         25
    21  H    0.000000
    22  H    1.756291   0.000000
    23  C    5.584640   5.791783   0.000000
    24  H    5.902610   5.801563   1.095488   0.000000
    25  H    6.093013   6.302195   1.095465   1.778773   0.000000
    26  H    6.189957   6.566504   1.093833   1.761862   1.761103
                   26
    26  H    0.000000
 Stoichiometry    C8H15NO2
 Framework group  C1[X(C8H15NO2)]
 Deg. of freedom    72
 Full point group                 C1      NOp   1
 Largest Abelian subgroup         C1      NOp   1
 Largest concise Abelian subgroup C1      NOp   1
                         Standard orientation:                         
 ---------------------------------------------------------------------
 Center     Atomic      Atomic             Coordinates (Angstroms)
 Number     Number       Type             X           Y           Z
 ---------------------------------------------------------------------
      1          1           0       -0.076127   -0.977839   -1.601551
      2          6           0        0.818064   -1.394194   -1.146121
      3          1           0        1.045939   -2.430276   -1.380561
      4          6           0        1.615344   -0.681055   -0.334150
      5          6           0        1.343158    0.745554    0.008521
      6          8           0        1.823044    1.295583    0.986538
      7          8           0        0.518294    1.341800   -0.896252
      8          6           0       -0.692967    1.839418   -0.303685
      9          1           0       -0.489613    2.800666    0.182282
     10          1           0       -1.427679    1.978231   -1.103522
     11          6           0       -1.222705    0.836543    0.734151
     12          1           0       -0.508274    0.759854    1.564627
     13          1           0       -2.136054    1.267332    1.167382
     14          7           0       -1.534522   -0.495649    0.177009
     15          6           0       -2.035657   -1.420940    1.195957
     16          1           0       -2.931523   -1.036934    1.696306
     17          1           0       -2.278131   -2.391803    0.749343
     18          1           0       -1.274216   -1.630770    1.953331
     19          6           0       -2.518695   -0.379675   -0.902609
     20          1           0       -3.471518    0.032305   -0.549892
     21          1           0       -2.140600    0.258798   -1.708162
     22          1           0       -2.715456   -1.361475   -1.349258
     23          6           0        2.844760   -1.296261    0.270771
     24          1           0        2.574825   -2.154083    0.896367
     25          1           0        3.525272   -1.639110   -0.516251
     26          1           0        3.406287   -0.600763    0.901198
 ---------------------------------------------------------------------
 Rotational constants (GHZ):           1.5106550           0.8682830           0.7157103
 Standard basis: 6-311++G(d,p) (5D, 7F)
 There are   358 symmetry adapted cartesian basis functions of A   symmetry.
 There are   347 symmetry adapted basis functions of A   symmetry.
   347 basis functions,   531 primitive gaussians,   358 cartesian basis functions
    43 alpha electrons       43 beta electrons
       nuclear repulsion energy       676.4405671696 Hartrees.
 NAtoms=   26 NActive=   26 NUniq=   26 SFac= 1.00D+00 NAtFMM=   60 NAOKFM=F Big=F
 Integral buffers will be    131072 words long.
 Raffenetti 2 integral format.
 Two-electron integral symmetry is turned on.
 Nuclear repulsion after empirical dispersion term =      676.3959168017 Hartrees.
 One-electron integrals computed using PRISM.
 NBasis=   347 RedAO= T EigKep=  6.86D-06  NBF=   347
 NBsUse=   347 1.00D-06 EigRej= -1.00D+00 NBFU=   347
 ExpMin= 3.60D-02 ExpMax= 8.59D+03 ExpMxC= 1.30D+03 IAcc=3 IRadAn=         5 AccDes= 0.00D+00
 Harris functional with IExCor=  402 and IRadAn=       5 diagonalized for initial guess.
 HarFok:  IExCor=  402 AccDes= 0.00D+00 IRadAn=         5 IDoV= 1 UseB2=F ITyADJ=14
 ICtDFT=  3500011 ScaDFX=  1.000000  1.000000  1.000000  1.000000
 FoFCou: FMM=F IPFlag=           0 FMFlag=      100000 FMFlg1=           0
         NFxFlg=           0 DoJE=T BraDBF=F KetDBF=T FulRan=T
         wScrn=  0.000000 ICntrl=       500 IOpCl=  0 I1Cent=   200000004 NGrid=           0
         NMat0=    1 NMatS0=      1 NMatT0=    0 NMatD0=    1 NMtDS0=    0 NMtDT0=    0
 Petite list used in FoFCou.
 Requested convergence on RMS density matrix=1.00D-08 within 128 cycles.
 Requested convergence on MAX density matrix=1.00D-06.
 Requested convergence on             energy=1.00D-06.
 No special actions if energy rises.
 SCF Done:  E(RB3LYP) =  -519.224737065     A.U. after   14 cycles
            NFock= 14  Conv=0.52D-08     -V/T= 2.0043
 SCF density gives NOpUse=  1 NOpAll=  1.

 **********************************************************************

            Population analysis using the SCF density.

 **********************************************************************

 Orbital symmetries:
 BldTbl:  Degeneracy threshold= 1.00D-02
       Occupied  (A) (A) (A) (A) (A) (A) (A) (A) (A) (A) (A) (A)
                 (A) (A) (A) (A) (A) (A) (A) (A) (A) (A) (A) (A)
                 (A) (A) (A) (A) (A) (A) (A) (A) (A) (A) (A) (A)
                 (A) (A) (A) (A) (A) (A) (A)
       Virtual   (A) (A) (A) (A) (A) (A) (A) (A) (A) (A) (A) (A)
                 (A) (A) (A) (A) (A) (A) (A) (A) (A) (A) (A) (A)
                 (A) (A) (A) (A) (A) (A) (A) (A) (A) (A) (A) (A)
                 (A) (A) (A) (A) (A) (A) (A) (A) (A) (A) (A) (A)
                 (A) (A) (A) (A) (A) (A) (A) (A) (A) (A) (A) (A)
                 (A) (A) (A) (A) (A) (A) (A) (A) (A) (A) (A) (A)
                 (A) (A) (A) (A) (A) (A) (A) (A) (A) (A) (A) (A)
                 (A) (A) (A) (A) (A) (A) (A) (A) (A) (A) (A) (A)
                 (A) (A) (A) (A) (A) (A) (A) (A) (A) (A) (A) (A)
                 (A) (A) (A) (A) (A) (A) (A) (A) (A) (A) (A) (A)
                 (A) (A) (A) (A) (A) (A) (A) (A) (A) (A) (A) (A)
                 (A) (A) (A) (A) (A) (A) (A) (A) (A) (A) (A) (A)
                 (A) (A) (A) (A) (A) (A) (A) (A) (A) (A) (A) (A)
                 (A) (A) (A) (A) (A) (A) (A) (A) (A) (A) (A) (A)
                 (A) (A) (A) (A) (A) (A) (A) (A) (A) (A) (A) (A)
                 (A) (A) (A) (A) (A) (A) (A) (A) (A) (A) (A) (A)
                 (A) (A) (A) (A) (A) (A) (A) (A) (A) (A) (A) (A)
                 (A) (A) (A) (A) (A) (A) (A) (A) (A) (A) (A) (A)
                 (A) (A) (A) (A) (A) (A) (A) (A) (A) (A) (A) (A)
                 (A) (A) (A) (A) (A) (A) (A) (A) (A) (A) (A) (A)
                 (A) (A) (A) (A) (A) (A) (A) (A) (A) (A) (A) (A)
                 (A) (A) (A) (A) (A) (A) (A) (A) (A) (A) (A) (A)
                 (A) (A) (A) (A) (A) (A) (A) (A) (A) (A) (A) (A)
                 (A) (A) (A) (A) (A) (A) (A) (A) (A) (A) (A) (A)
                 (A) (A) (A) (A) (A) (A) (A) (A) (A) (A) (A) (A)
                 (A) (A) (A) (A)
 The electronic state is 1-A.
 Alpha  occ. eigenvalues --  -19.15403 -19.11657 -14.31820 -10.30318 -10.23888
 Alpha  occ. eigenvalues --  -10.20769 -10.19876 -10.19667 -10.18670 -10.17765
 Alpha  occ. eigenvalues --  -10.16127  -1.10105  -1.02197  -0.93316  -0.81060
 Alpha  occ. eigenvalues --   -0.76674  -0.71816  -0.69457  -0.68065  -0.62767
 Alpha  occ. eigenvalues --   -0.59323  -0.53630  -0.51436  -0.50943  -0.48511
 Alpha  occ. eigenvalues --   -0.47705  -0.46832  -0.45266  -0.43477  -0.42847
 Alpha  occ. eigenvalues --   -0.42016  -0.40664  -0.39542  -0.39071  -0.38115
 Alpha  occ. eigenvalues --   -0.37236  -0.36883  -0.36538  -0.34540  -0.29808
 Alpha  occ. eigenvalues --   -0.28324  -0.27187  -0.22397
 Alpha virt. eigenvalues --   -0.05981  -0.01492   0.00069   0.00668   0.00781
 Alpha virt. eigenvalues --    0.02389   0.02464   0.02807   0.03242   0.03669
 Alpha virt. eigenvalues --    0.04317   0.05085   0.05480   0.06152   0.06370
 Alpha virt. eigenvalues --    0.06846   0.07070   0.08231   0.08430   0.09018
 Alpha virt. eigenvalues --    0.09690   0.09927   0.10898   0.11224   0.11292
 Alpha virt. eigenvalues --    0.11710   0.12025   0.12500   0.12789   0.13000
 Alpha virt. eigenvalues --    0.13168   0.13428   0.13900   0.14017   0.14411
 Alpha virt. eigenvalues --    0.14829   0.15409   0.15506   0.16036   0.16832
 Alpha virt. eigenvalues --    0.16870   0.17394   0.17504   0.18152   0.18296
 Alpha virt. eigenvalues --    0.18945   0.19694   0.20161   0.20346   0.20906
 Alpha virt. eigenvalues --    0.21718   0.21848   0.22280   0.23028   0.23092
 Alpha virt. eigenvalues --    0.23790   0.24265   0.25453   0.25952   0.26355
 Alpha virt. eigenvalues --    0.26721   0.27782   0.27995   0.28902   0.29805
 Alpha virt. eigenvalues --    0.30023   0.30322   0.30806   0.31304   0.32492
 Alpha virt. eigenvalues --    0.32780   0.33691   0.34765   0.34828   0.35583
 Alpha virt. eigenvalues --    0.35938   0.37079   0.37445   0.38673   0.39068
 Alpha virt. eigenvalues --    0.39535   0.40809   0.42398   0.43232   0.44596
 Alpha virt. eigenvalues --    0.46128   0.46931   0.49411   0.50830   0.51818
 Alpha virt. eigenvalues --    0.53426   0.55341   0.56200   0.56643   0.57661
 Alpha virt. eigenvalues --    0.58797   0.59893   0.60561   0.61397   0.61474
 Alpha virt. eigenvalues --    0.63306   0.64011   0.64389   0.65640   0.65754
 Alpha virt. eigenvalues --    0.66181   0.66529   0.67663   0.68154   0.69235
 Alpha virt. eigenvalues --    0.70208   0.70714   0.71738   0.73544   0.74115
 Alpha virt. eigenvalues --    0.75785   0.76189   0.76927   0.77914   0.78204
 Alpha virt. eigenvalues --    0.79309   0.80668   0.82219   0.83580   0.86208
 Alpha virt. eigenvalues --    0.87194   0.87418   0.90895   0.92888   0.93513
 Alpha virt. eigenvalues --    0.95239   0.98204   0.99546   1.03328   1.04473
 Alpha virt. eigenvalues --    1.06740   1.08057   1.10125   1.11813   1.14054
 Alpha virt. eigenvalues --    1.16042   1.18612   1.20090   1.21805   1.24328
 Alpha virt. eigenvalues --    1.25085   1.26327   1.29808   1.32658   1.34030
 Alpha virt. eigenvalues --    1.36383   1.39063   1.41057   1.43106   1.46043
 Alpha virt. eigenvalues --    1.46480   1.47191   1.48289   1.50035   1.50467
 Alpha virt. eigenvalues --    1.51757   1.52302   1.53595   1.54681   1.56667
 Alpha virt. eigenvalues --    1.57741   1.58229   1.59738   1.59932   1.61309
 Alpha virt. eigenvalues --    1.62697   1.63542   1.64731   1.65619   1.66713
 Alpha virt. eigenvalues --    1.67253   1.68791   1.70723   1.71218   1.71818
 Alpha virt. eigenvalues --    1.74648   1.75040   1.76304   1.78647   1.80670
 Alpha virt. eigenvalues --    1.82158   1.82811   1.85208   1.85488   1.86321
 Alpha virt. eigenvalues --    1.87309   1.88722   1.90191   1.95209   1.97674
 Alpha virt. eigenvalues --    2.01088   2.02534   2.03546   2.05854   2.06603
 Alpha virt. eigenvalues --    2.08799   2.10059   2.11990   2.14605   2.14999
 Alpha virt. eigenvalues --    2.16481   2.18392   2.20559   2.21934   2.26336
 Alpha virt. eigenvalues --    2.28670   2.29771   2.32724   2.35366   2.39785
 Alpha virt. eigenvalues --    2.44519   2.45443   2.46188   2.48057   2.48761
 Alpha virt. eigenvalues --    2.50816   2.51505   2.52507   2.53788   2.54833
 Alpha virt. eigenvalues --    2.56093   2.56741   2.58693   2.59289   2.61964
 Alpha virt. eigenvalues --    2.64110   2.65920   2.66924   2.68550   2.69571
 Alpha virt. eigenvalues --    2.71979   2.72653   2.74074   2.75490   2.78301
 Alpha virt. eigenvalues --    2.79505   2.80580   2.83614   2.85146   2.86502
 Alpha virt. eigenvalues --    2.86764   2.89385   2.91973   2.93274   2.93288
 Alpha virt. eigenvalues --    2.94718   3.00265   3.02115   3.03773   3.09308
 Alpha virt. eigenvalues --    3.10368   3.14046   3.15468   3.20507   3.22565
 Alpha virt. eigenvalues --    3.24154   3.35557   3.36618   3.39146   3.54369
 Alpha virt. eigenvalues --    3.57641   3.58668   3.62925   3.72293   3.74824
 Alpha virt. eigenvalues --    3.76466   3.78288   3.78464   3.79713   3.81444
 Alpha virt. eigenvalues --    3.81930   3.82580   3.83747   3.84749   4.02352
 Alpha virt. eigenvalues --    4.09605   4.15710   4.29414   4.31548   4.35986
 Alpha virt. eigenvalues --    4.84023   4.86065   5.11649   5.14877   5.21321
 Alpha virt. eigenvalues --    5.40992   5.63873   5.87545  23.74470  23.82058
 Alpha virt. eigenvalues --   23.83724  23.92574  23.95134  23.96651  23.98110
 Alpha virt. eigenvalues --   24.22015  35.54349  49.93676  50.02331
          Condensed to atoms (all electrons):
               1          2          3          4          5          6
     1  H    0.557191   0.466629  -0.043754  -0.017958  -0.103752   0.006037
     2  C    0.466629   8.677498   0.319875  -0.435266  -1.543532   0.065630
     3  H   -0.043754   0.319875   0.548420   0.002538  -0.003166  -0.000072
     4  C   -0.017958  -0.435266   0.002538   7.269997  -0.892684  -0.197663
     5  C   -0.103752  -1.543532  -0.003166  -0.892684   8.774675   0.483527
     6  O    0.006037   0.065630  -0.000072  -0.197663   0.483527   7.971080
     7  O    0.018027   0.029894  -0.005443  -0.125416   0.030021  -0.121920
     8  C   -0.013174  -0.363791   0.012085   0.208403   0.130251   0.040883
     9  H    0.003515  -0.026229  -0.000181   0.016695  -0.054222   0.013346
    10  H   -0.005514   0.000522   0.001281  -0.027908   0.088502  -0.000262
    11  C    0.000789   0.088784  -0.001611   0.073062  -0.609488  -0.068677
    12  H   -0.003055  -0.010592  -0.000033  -0.026330   0.125194  -0.010925
    13  H   -0.000379   0.010698   0.000554  -0.012025  -0.034645  -0.001944
    14  N   -0.006589   0.076734  -0.000558  -0.113642  -0.147225   0.017447
    15  C    0.003295  -0.053210  -0.003447   0.042560   0.000399   0.007820
    16  H    0.000503   0.003006   0.000162  -0.007518  -0.002489   0.000277
    17  H   -0.002440   0.012964  -0.000092  -0.005508   0.002729  -0.000086
    18  H    0.002553   0.008098  -0.000314   0.021211  -0.016773  -0.001565
    19  C    0.009964   0.122160  -0.002917  -0.072564  -0.009340  -0.004998
    20  H    0.007784  -0.012062  -0.000346   0.011743  -0.012934   0.000362
    21  H   -0.006090   0.037989   0.001313  -0.028652  -0.006783  -0.000530
    22  H   -0.008067   0.014409  -0.000818  -0.004801  -0.005397  -0.000160
    23  C   -0.001939  -1.232026   0.010571  -0.386866   0.388357  -0.022010
    24  H   -0.002159  -0.018005   0.004626  -0.006839   0.011083  -0.001471
    25  H    0.002839   0.023935  -0.006451  -0.117739  -0.028106   0.005067
    26  H   -0.001844   0.026659   0.000818  -0.067573   0.034706   0.001853
               7          8          9         10         11         12
     1  H    0.018027  -0.013174   0.003515  -0.005514   0.000789  -0.003055
     2  C    0.029894  -0.363791  -0.026229   0.000522   0.088784  -0.010592
     3  H   -0.005443   0.012085  -0.000181   0.001281  -0.001611  -0.000033
     4  C   -0.125416   0.208403   0.016695  -0.027908   0.073062  -0.026330
     5  C    0.030021   0.130251  -0.054222   0.088502  -0.609488   0.125194
     6  O   -0.121920   0.040883   0.013346  -0.000262  -0.068677  -0.010925
     7  O    8.060144   0.158776  -0.022852  -0.115795  -0.006399  -0.037979
     8  C    0.158776   6.186203   0.327529   0.486871  -0.341183   0.014059
     9  H   -0.022852   0.327529   0.580892  -0.064658   0.013394  -0.025387
    10  H   -0.115795   0.486871  -0.064658   0.619176  -0.083528   0.016910
    11  C   -0.006399  -0.341183   0.013394  -0.083528   6.600461   0.376132
    12  H   -0.037979   0.014059  -0.025387   0.016910   0.376132   0.520085
    13  H    0.021256  -0.092376   0.011313  -0.010961   0.484985  -0.063733
    14  N    0.075550  -0.074897   0.019686  -0.037914   0.013485  -0.065442
    15  C    0.010132  -0.033358   0.006810  -0.007399  -0.174190  -0.007362
    16  H    0.000556  -0.009655   0.000665  -0.001031   0.007927  -0.006607
    17  H    0.000548  -0.010193   0.000161  -0.000507   0.024534  -0.000322
    18  H    0.001001   0.015439  -0.000028   0.000725  -0.017914   0.000965
    19  C   -0.007598  -0.091460  -0.022597   0.009529  -0.189195   0.014576
    20  H    0.002980   0.021610   0.002761  -0.007861  -0.020315  -0.004769
    21  H    0.004960  -0.059005   0.002833  -0.008629   0.036265   0.000610
    22  H   -0.001055   0.002114  -0.000679   0.001841   0.024420  -0.001575
    23  C    0.026853   0.068892   0.019915  -0.005066   0.026251  -0.020328
    24  H   -0.003868   0.005743  -0.000092   0.000345  -0.011580   0.003150
    25  H    0.000697  -0.001441   0.000348  -0.000424  -0.001458  -0.001469
    26  H    0.004949  -0.011680  -0.000022  -0.000554   0.010070  -0.000089
              13         14         15         16         17         18
     1  H   -0.000379  -0.006589   0.003295   0.000503  -0.002440   0.002553
     2  C    0.010698   0.076734  -0.053210   0.003006   0.012964   0.008098
     3  H    0.000554  -0.000558  -0.003447   0.000162  -0.000092  -0.000314
     4  C   -0.012025  -0.113642   0.042560  -0.007518  -0.005508   0.021211
     5  C   -0.034645  -0.147225   0.000399  -0.002489   0.002729  -0.016773
     6  O   -0.001944   0.017447   0.007820   0.000277  -0.000086  -0.001565
     7  O    0.021256   0.075550   0.010132   0.000556   0.000548   0.001001
     8  C   -0.092376  -0.074897  -0.033358  -0.009655  -0.010193   0.015439
     9  H    0.011313   0.019686   0.006810   0.000665   0.000161  -0.000028
    10  H   -0.010961  -0.037914  -0.007399  -0.001031  -0.000507   0.000725
    11  C    0.484985   0.013485  -0.174190   0.007927   0.024534  -0.017914
    12  H   -0.063733  -0.065442  -0.007362  -0.006607  -0.000322   0.000965
    13  H    0.682186  -0.159865  -0.006368   0.035586  -0.002403  -0.001165
    14  N   -0.159865   7.239557   0.278902  -0.108691  -0.054398  -0.051781
    15  C   -0.006368   0.278902   5.201648   0.415791   0.400748   0.397647
    16  H    0.035586  -0.108691   0.415791   0.639602  -0.055993  -0.048055
    17  H   -0.002403  -0.054398   0.400748  -0.055993   0.576778  -0.021339
    18  H   -0.001165  -0.051781   0.397647  -0.048055  -0.021339   0.558879
    19  C   -0.025705   0.203325  -0.163788  -0.004547  -0.008591   0.005811
    20  H    0.026794  -0.081581   0.002360   0.020034  -0.002898   0.000722
    21  H    0.002312  -0.060759   0.004760  -0.000133   0.002292  -0.004848
    22  H   -0.000654  -0.063645  -0.010480   0.000942   0.007170  -0.001238
    23  C   -0.000341  -0.045698   0.018419   0.000755  -0.004261   0.001997
    24  H   -0.000599   0.002821   0.000505   0.000065  -0.000785  -0.001351
    25  H   -0.000278  -0.002006   0.000360  -0.000060   0.000141   0.000293
    26  H    0.000163   0.001619  -0.000159   0.000038   0.000254  -0.000473
              19         20         21         22         23         24
     1  H    0.009964   0.007784  -0.006090  -0.008067  -0.001939  -0.002159
     2  C    0.122160  -0.012062   0.037989   0.014409  -1.232026  -0.018005
     3  H   -0.002917  -0.000346   0.001313  -0.000818   0.010571   0.004626
     4  C   -0.072564   0.011743  -0.028652  -0.004801  -0.386866  -0.006839
     5  C   -0.009340  -0.012934  -0.006783  -0.005397   0.388357   0.011083
     6  O   -0.004998   0.000362  -0.000530  -0.000160  -0.022010  -0.001471
     7  O   -0.007598   0.002980   0.004960  -0.001055   0.026853  -0.003868
     8  C   -0.091460   0.021610  -0.059005   0.002114   0.068892   0.005743
     9  H   -0.022597   0.002761   0.002833  -0.000679   0.019915  -0.000092
    10  H    0.009529  -0.007861  -0.008629   0.001841  -0.005066   0.000345
    11  C   -0.189195  -0.020315   0.036265   0.024420   0.026251  -0.011580
    12  H    0.014576  -0.004769   0.000610  -0.001575  -0.020328   0.003150
    13  H   -0.025705   0.026794   0.002312  -0.000654  -0.000341  -0.000599
    14  N    0.203325  -0.081581  -0.060759  -0.063645  -0.045698   0.002821
    15  C   -0.163788   0.002360   0.004760  -0.010480   0.018419   0.000505
    16  H   -0.004547   0.020034  -0.000133   0.000942   0.000755   0.000065
    17  H   -0.008591  -0.002898   0.002292   0.007170  -0.004261  -0.000785
    18  H    0.005811   0.000722  -0.004848  -0.001238   0.001997  -0.001351
    19  C    5.431869   0.389822   0.425967   0.421474  -0.023090  -0.001220
    20  H    0.389822   0.605386  -0.049127  -0.043439   0.002447  -0.000005
    21  H    0.425967  -0.049127   0.603685  -0.025957  -0.009763  -0.000269
    22  H    0.421474  -0.043439  -0.025957   0.549333  -0.000149  -0.000107
    23  C   -0.023090   0.002447  -0.009763  -0.000149   6.737443   0.364016
    24  H   -0.001220  -0.000005  -0.000269  -0.000107   0.364016   0.579541
    25  H    0.000804   0.000035  -0.000164   0.000073   0.468857  -0.050101
    26  H    0.000922  -0.000059   0.000508   0.000058   0.352942  -0.022973
              25         26
     1  H    0.002839  -0.001844
     2  C    0.023935   0.026659
     3  H   -0.006451   0.000818
     4  C   -0.117739  -0.067573
     5  C   -0.028106   0.034706
     6  O    0.005067   0.001853
     7  O    0.000697   0.004949
     8  C   -0.001441  -0.011680
     9  H    0.000348  -0.000022
    10  H   -0.000424  -0.000554
    11  C   -0.001458   0.010070
    12  H   -0.001469  -0.000089
    13  H   -0.000278   0.000163
    14  N   -0.002006   0.001619
    15  C    0.000360  -0.000159
    16  H   -0.000060   0.000038
    17  H    0.000141   0.000254
    18  H    0.000293  -0.000473
    19  C    0.000804   0.000922
    20  H    0.000035  -0.000059
    21  H   -0.000164   0.000508
    22  H    0.000073   0.000058
    23  C    0.468857   0.352942
    24  H   -0.050101  -0.022973
    25  H    0.579159  -0.021753
    26  H   -0.021753   0.500586
 Mulliken charges:
               1
     1  H    0.137588
     2  C   -0.290772
     3  H    0.166959
     4  C    0.900742
     5  C   -0.598907
     6  O   -0.181045
     7  O    0.001981
     8  C   -0.576645
     9  H    0.197084
    10  H    0.152311
    11  C   -0.255020
    12  H    0.214314
    13  H    0.137597
    14  N    0.145566
    15  C   -0.332392
    16  H    0.118868
    17  H    0.141494
    18  H    0.151503
    19  C   -0.408615
    20  H    0.140556
    21  H    0.137218
    22  H    0.146388
    23  C   -0.736178
    24  H    0.149529
    25  H    0.148842
    26  H    0.191034
 Sum of Mulliken charges =  -0.00000
 Mulliken charges with hydrogens summed into heavy atoms:
               1
     2  C    0.013775
     4  C    0.900742
     5  C   -0.598907
     6  O   -0.181045
     7  O    0.001981
     8  C   -0.227251
    11  C    0.096891
    14  N    0.145566
    15  C    0.079473
    19  C    0.015546
    23  C   -0.246772
 DipInt: DoE/N= T F RetVal/Mat= T F Init=T NMatP=  1 IDeriv=0 Min/MaxMlt=  0  4
 Entering OneElI...
 OneElI was handed 25769474560 working-precision words.
 Multipole integrals L=0 to 4 MinM= 0 MaxM= 0.
 Requested accuracy = 0.1000D-12
 ShPair: Thresh= 1.00D-13 NBox=     0 BxSize= 0.00D+00 RnKept= 1.36D+01
         NSMCal=                10011 NSMKep=                9455
 PrmmSu-InSpLW:  IPartL=    0 NPrtUS=    1 NPrtUL=    1 DoSpLW=F IThBeg=    0 IThEnd=    0 NThAct=    1.
 PrsmSu:  NPrtUS=   1 ThrOK=F IAlg=1 NPAlg=1 LenDen=           0 ISkipM=0 DoSpLW=F IThBeg=    0 IThEnd=    0.
 Prism:   IPart=     0 DynPar=F LinDyn=F Incr=          94.
 PRISM was handed 25768902158 working-precision words and  9455 shell-pairs
 IPart=  0 NShTot=        9455 NBatch=          94 AvBLen=       100.6
 PrsmSu-ThDecC:  IPartSL=    0    0 NPrtUSL=    1    1 IThBeg=    0 IThEnd=    0 CPU=   -1 GPU=   -1 NThAct=    1.
 PrSmSu:  NxtVal=             95.
 Electronic moments (au):
        -86.00000000         -1.19102367         -0.70406272         -0.25382923
      -1041.49353257       -531.33860918       -282.72319654         -3.97974062
         -0.94853894         -0.63445206       -158.97711442        -70.43434637
        -30.64709513       -155.54809647        968.89913927       -287.32545084
        215.39205808        128.24005115        -16.94261805       -273.84296296
     -24574.85375213      -6638.96906432      -2276.55312879       1151.31250638
      -1479.98389265        483.03447287        231.49732109        257.26158336
         10.15736299      -5762.51706705      -3429.83500345      -1893.81968934
        271.25318096        371.51333079       -541.25122941
 Electronic spatial extent (au):  <R**2>=           1855.5553
 DipInt: DoE/N= F T RetVal/Mat= T F Init=T NMatP=  1 IDeriv=0 Min/MaxMlt=  0  4
 Nuclear    moments (au):
         86.00000000         -0.00000000          0.00000000          0.00000000
        990.33903997        481.23870635        229.94342953         -0.00000000
          0.00000000          0.00000000        161.80271931         74.79871987
         31.62909509        143.80209167       -978.43009432        276.28879580
       -224.72956938       -133.00513910         11.61200793        270.45991786
      20740.74360134       4803.65306382       1240.21380993      -1150.42924963
       1475.18856107       -484.60066376       -228.18234702       -227.94939855
        -21.38212675       4798.87633362       2603.47296818       1406.97243658
       -290.65664035       -380.54491060        529.81627865
 Total      moments (au):
         -0.00000000         -1.19102367         -0.70406272         -0.25382923
        -51.15449259        -50.09990284        -52.77976701         -3.97974062
         -0.94853894         -0.63445206          2.82560490          4.36437350
          0.98199996        -11.74600480         -9.53095505        -11.03665504
         -9.33751130         -4.76508795         -5.33061012         -3.38304510
      -3834.11015079      -1835.31600050      -1036.33931887          0.88325675
         -4.79533158         -1.56619089          3.31497407         29.31218481
        -11.22476376       -963.64073343       -826.36203527       -486.84725276
        -19.40345939         -9.03157981        -11.43495076
 Traceless Quadrup. (au):
          0.19022822          1.24481798         -1.43504620         -3.97974062
         -0.94853894         -0.63445206
 Charge=             -0.0000 electrons
 Dipole moment (field-independent basis, Debye):
    X=             -3.0273    Y=             -1.7895    Z=             -0.6452  Tot=              3.5754
 Quadrupole moment (field-independent basis, Debye-Ang):
   XX=            -68.8045   YY=            -67.3861   ZZ=            -70.9906
   XY=             -5.3529   XZ=             -1.2758   YZ=             -0.8534
 Traceless Quadrupole moment (field-independent basis, Debye-Ang):
   XX=              0.2559   YY=              1.6743   ZZ=             -1.9302
   XY=             -5.3529   XZ=             -1.2758   YZ=             -0.8534
 Octapole moment (field-independent basis, Debye-Ang**2):
  XXX=              2.0112  YYY=              3.1064  ZZZ=              0.6989  XYY=             -8.3604
  XXY=             -6.7838  XXZ=             -7.8555  XZZ=             -6.6461  YZZ=             -3.3916
  YYZ=             -3.7941  XYZ=             -2.4079
 Hexadecapole moment (field-independent basis, Debye-Ang**3):
 XXXX=          -1444.1097 YYYY=           -691.2680 ZZZZ=           -390.3351 XXXY=              0.3327
 XXXZ=             -1.8062 YYYX=             -0.5899 YYYZ=              1.2486 ZZZX=             11.0404
 ZZZY=             -4.2278 XXYY=           -362.9533 XXZZ=           -311.2476 YYZZ=           -183.3700
 XXYZ=             -7.3083 YYXZ=             -3.4017 ZZXY=             -4.3070
 N-N= 6.763959168017D+02 E-N=-2.563595320880D+03  KE= 5.170009265248D+02
 Entering OneElI...
 OneElI was handed 25769545553 working-precision words.
 Calculate electrostatic properties
    NBasis =   347  MinDer = 0  MaxDer = 0
    NGrid  =    26  NMatD  =   1
 Requested accuracy = 0.1000D-12
 ShPair: Thresh= 1.00D-13 NBox=     0 BxSize= 0.00D+00 RnKept= 1.36D+01
         NSMCal=                10011 NSMKep=                8900
 PrmmSu-InSpLW:  IPartL=    0 NPrtUS=   48 NPrtUL=    1 DoSpLW=F IThBeg=    0 IThEnd=   47 NThAct=   48.
 PrsmSu:  NPrtUS=  48 ThrOK=T IAlg=1 NPAlg=1 LenDen=           0 ISkipM=0 DoSpLW=F IThBeg=    0 IThEnd=   47.
 Prism:   IPart=     0 DynPar=F LinDyn=F Incr=          48.
 PRISM was handed   536688813 working-precision words and  8900 shell-pairs
 PRISM was handed   536688813 working-precision words and  8900 shell-pairs
 PRISM was handed   536688813 working-precision words and  8900 shell-pairs
 PRISM was handed   536688813 working-precision words and  8900 shell-pairs
 PRISM was handed   536688813 working-precision words and  8900 shell-pairs
 PRISM was handed   536688813 working-precision words and  8900 shell-pairs
 PRISM was handed   536688813 working-precision words and  8900 shell-pairs
 PRISM was handed   536688813 working-precision words and  8900 shell-pairs
 PRISM was handed   536688813 working-precision words and  8900 shell-pairs
 PRISM was handed   536688813 working-precision words and  8900 shell-pairs
 PRISM was handed   536688813 working-precision words and  8900 shell-pairs
 PRISM was handed   536688813 working-precision words and  8900 shell-pairs
 PRISM was handed   536688813 working-precision words and  8900 shell-pairs
 PRISM was handed   536688813 working-precision words and  8900 shell-pairs
 PRISM was handed   536688813 working-precision words and  8900 shell-pairs
 PRISM was handed   536688813 working-precision words and  8900 shell-pairs
 PRISM was handed   536688813 working-precision words and  8900 shell-pairs
 PRISM was handed   536688813 working-precision words and  8900 shell-pairs
 PRISM was handed   536688813 working-precision words and  8900 shell-pairs
 PRISM was handed   536688813 working-precision words and  8900 shell-pairs
 PRISM was handed   536688813 working-precision words and  8900 shell-pairs
 PRISM was handed   536688813 working-precision words and  8900 shell-pairs
 PRISM was handed   536688813 working-precision words and  8900 shell-pairs
 PRISM was handed   536688813 working-precision words and  8900 shell-pairs
 PRISM was handed   536688813 working-precision words and  8900 shell-pairs
 PRISM was handed   536688813 working-precision words and  8900 shell-pairs
 PRISM was handed   536688813 working-precision words and  8900 shell-pairs
 PRISM was handed   536688813 working-precision words and  8900 shell-pairs
 PRISM was handed   536688813 working-precision words and  8900 shell-pairs
 PRISM was handed   536688813 working-precision words and  8900 shell-pairs
 PRISM was handed   536688813 working-precision words and  8900 shell-pairs
 PRISM was handed   536688813 working-precision words and  8900 shell-pairs
 PRISM was handed   536688813 working-precision words and  8900 shell-pairs
 PRISM was handed   536688813 working-precision words and  8900 shell-pairs
 PRISM was handed   536688813 working-precision words and  8900 shell-pairs
 PRISM was handed   536688813 working-precision words and  8900 shell-pairs
 PRISM was handed   536688813 working-precision words and  8900 shell-pairs
 PRISM was handed   536688813 working-precision words and  8900 shell-pairs
 PRISM was handed   536688813 working-precision words and  8900 shell-pairs
 PRISM was handed   536688813 working-precision words and  8900 shell-pairs
 PRISM was handed   536688813 working-precision words and  8900 shell-pairs
 PRISM was handed   536688813 working-precision words and  8900 shell-pairs
 PRISM was handed   536688813 working-precision words and  8900 shell-pairs
 PRISM was handed   536688813 working-precision words and  8900 shell-pairs
 PRISM was handed   536688813 working-precision words and  8900 shell-pairs
 PRISM was handed   536688813 working-precision words and  8900 shell-pairs
 PRISM was handed   536688813 working-precision words and  8900 shell-pairs
 PRISM was handed   536688813 working-precision words and  8900 shell-pairs
 IPart= 43 NShTot=        4420 NBatch=         170 AvBLen=        26.0
 PrsmSu-ThDecC:  IPartSL=   43    0 NPrtUSL=   48    1 IThBeg=    0 IThEnd=   47 CPU=   -1 GPU=   -1 NThAct=   48.
 IPart= 36 NShTot=        4524 NBatch=         174 AvBLen=        26.0
 PrsmSu-ThDecC:  IPartSL=   36    0 NPrtUSL=   48    1 IThBeg=    0 IThEnd=   47 CPU=   -1 GPU=   -1 NThAct=   47.
 IPart= 24 NShTot=        4732 NBatch=         182 AvBLen=        26.0
 PrsmSu-ThDecC:  IPartSL=   24    0 NPrtUSL=   48    1 IThBeg=    0 IThEnd=   47 CPU=   -1 GPU=   -1 NThAct=   46.
 IPart= 16 NShTot=        4914 NBatch=         189 AvBLen=        26.0
 PrsmSu-ThDecC:  IPartSL=   16    0 NPrtUSL=   48    1 IThBeg=    0 IThEnd=   47 CPU=   -1 GPU=   -1 NThAct=   45.
 IPart= 13 NShTot=        5018 NBatch=         193 AvBLen=        26.0
 PrsmSu-ThDecC:  IPartSL=   13    0 NPrtUSL=   48    1 IThBeg=    0 IThEnd=   47 CPU=   -1 GPU=   -1 NThAct=   44.
 IPart= 11 NShTot=        5070 NBatch=         195 AvBLen=        26.0
 IPart=  9 NShTot=        5200 NBatch=         200 AvBLen=        26.0
 IPart=  8 NShTot=        5200 NBatch=         200 AvBLen=        26.0
 PrsmSu-ThDecC:  IPartSL=   11    0 NPrtUSL=   48    1 IThBeg=    0 IThEnd=   47 CPU=   -1 GPU=   -1 NThAct=   43.
 PrsmSu-ThDecC:  IPartSL=    8    0 NPrtUSL=   48    1 IThBeg=    0 IThEnd=   47 CPU=   -1 GPU=   -1 NThAct=   42.
 PrsmSu-ThDecC:  IPartSL=    9    0 NPrtUSL=   48    1 IThBeg=    0 IThEnd=   47 CPU=   -1 GPU=   -1 NThAct=   41.
 IPart= 27 NShTot=        4654 NBatch=         179 AvBLen=        26.0
 PrsmSu-ThDecC:  IPartSL=   27    0 NPrtUSL=   48    1 IThBeg=    0 IThEnd=   47 CPU=   -1 GPU=   -1 NThAct=   40.
 IPart= 35 NShTot=        4524 NBatch=         174 AvBLen=        26.0
 PrsmSu-ThDecC:  IPartSL=   35    0 NPrtUSL=   48    1 IThBeg=    0 IThEnd=   47 CPU=   -1 GPU=   -1 NThAct=   39.
 IPart=  2 NShTot=        5538 NBatch=         213 AvBLen=        26.0
 IPart=  5 NShTot=        5408 NBatch=         208 AvBLen=        26.0
 PrsmSu-ThDecC:  IPartSL=    2    0 NPrtUSL=   48    1 IThBeg=    0 IThEnd=   47 CPU=   -1 GPU=   -1 NThAct=   38.
 PrsmSu-ThDecC:  IPartSL=    5    0 NPrtUSL=   48    1 IThBeg=    0 IThEnd=   47 CPU=   -1 GPU=   -1 NThAct=   37.
 IPart=  0 NShTot=        5720 NBatch=         220 AvBLen=        26.0
 PrsmSu-ThDecC:  IPartSL=    0    0 NPrtUSL=   48    1 IThBeg=    0 IThEnd=   47 CPU=   -1 GPU=   -1 NThAct=   36.
 IPart= 30 NShTot=        4576 NBatch=         176 AvBLen=        26.0
 PrsmSu-ThDecC:  IPartSL=   30    0 NPrtUSL=   48    1 IThBeg=    0 IThEnd=   47 CPU=   -1 GPU=   -1 NThAct=   35.
 IPart= 31 NShTot=        4576 NBatch=         176 AvBLen=        26.0
 PrsmSu-ThDecC:  IPartSL=   31    0 NPrtUSL=   48    1 IThBeg=    0 IThEnd=   47 CPU=   -1 GPU=   -1 NThAct=   34.
 IPart= 45 NShTot=        4368 NBatch=         168 AvBLen=        26.0
 PrsmSu-ThDecC:  IPartSL=   45    0 NPrtUSL=   48    1 IThBeg=    0 IThEnd=   47 CPU=   -1 GPU=   -1 NThAct=   33.
 IPart= 22 NShTot=        4732 NBatch=         182 AvBLen=        26.0
 PrsmSu-ThDecC:  IPartSL=   22    0 NPrtUSL=   48    1 IThBeg=    0 IThEnd=   47 CPU=   -1 GPU=   -1 NThAct=   32.
 IPart= 47 NShTot=        4342 NBatch=         167 AvBLen=        26.0
 PrsmSu-ThDecC:  IPartSL=   47    0 NPrtUSL=   48    1 IThBeg=    0 IThEnd=   47 CPU=   -1 GPU=   -1 NThAct=   31.
 IPart= 32 NShTot=        4576 NBatch=         176 AvBLen=        26.0
 PrsmSu-ThDecC:  IPartSL=   32    0 NPrtUSL=   48    1 IThBeg=    0 IThEnd=   47 CPU=   -1 GPU=   -1 NThAct=   30.
 IPart=  3 NShTot=        5486 NBatch=         211 AvBLen=        26.0
 PrsmSu-ThDecC:  IPartSL=    3    0 NPrtUSL=   48    1 IThBeg=    0 IThEnd=   47 CPU=   -1 GPU=   -1 NThAct=   29.
 IPart=  1 NShTot=        5642 NBatch=         217 AvBLen=        26.0
 PrsmSu-ThDecC:  IPartSL=    1    0 NPrtUSL=   48    1 IThBeg=    0 IThEnd=   47 CPU=   -1 GPU=   -1 NThAct=   28.
 IPart= 44 NShTot=        4394 NBatch=         169 AvBLen=        26.0
 PrsmSu-ThDecC:  IPartSL=   44    0 NPrtUSL=   48    1 IThBeg=    0 IThEnd=   47 CPU=   -1 GPU=   -1 NThAct=   27.
 IPart= 42 NShTot=        4446 NBatch=         171 AvBLen=        26.0
 PrsmSu-ThDecC:  IPartSL=   42    0 NPrtUSL=   48    1 IThBeg=    0 IThEnd=   47 CPU=   -1 GPU=   -1 NThAct=   26.
 IPart= 28 NShTot=        4602 NBatch=         177 AvBLen=        26.0
 PrsmSu-ThDecC:  IPartSL=   28    0 NPrtUSL=   48    1 IThBeg=    0 IThEnd=   47 CPU=   -1 GPU=   -1 NThAct=   25.
 IPart= 18 NShTot=        4836 NBatch=         186 AvBLen=        26.0
 PrsmSu-ThDecC:  IPartSL=   18    0 NPrtUSL=   48    1 IThBeg=    0 IThEnd=   47 CPU=   -1 GPU=   -1 NThAct=   24.
 IPart= 39 NShTot=        4472 NBatch=         172 AvBLen=        26.0
 PrsmSu-ThDecC:  IPartSL=   39    0 NPrtUSL=   48    1 IThBeg=    0 IThEnd=   47 CPU=   -1 GPU=   -1 NThAct=   23.
 IPart= 37 NShTot=        4498 NBatch=         173 AvBLen=        26.0
 PrsmSu-ThDecC:  IPartSL=   37    0 NPrtUSL=   48    1 IThBeg=    0 IThEnd=   47 CPU=   -1 GPU=   -1 NThAct=   22.
 IPart= 20 NShTot=        4810 NBatch=         185 AvBLen=        26.0
 PrsmSu-ThDecC:  IPartSL=   20    0 NPrtUSL=   48    1 IThBeg=    0 IThEnd=   47 CPU=   -1 GPU=   -1 NThAct=   21.
 IPart= 23 NShTot=        4732 NBatch=         182 AvBLen=        26.0
 PrsmSu-ThDecC:  IPartSL=   23    0 NPrtUSL=   48    1 IThBeg=    0 IThEnd=   47 CPU=   -1 GPU=   -1 NThAct=   20.
 IPart= 21 NShTot=        4758 NBatch=         183 AvBLen=        26.0
 PrsmSu-ThDecC:  IPartSL=   21    0 NPrtUSL=   48    1 IThBeg=    0 IThEnd=   47 CPU=   -1 GPU=   -1 NThAct=   19.
 IPart= 33 NShTot=        4550 NBatch=         175 AvBLen=        26.0
 IPart= 26 NShTot=        4654 NBatch=         179 AvBLen=        26.0
 PrsmSu-ThDecC:  IPartSL=   33    0 NPrtUSL=   48    1 IThBeg=    0 IThEnd=   47 CPU=   -1 GPU=   -1 NThAct=   18.
 PrsmSu-ThDecC:  IPartSL=   26    0 NPrtUSL=   48    1 IThBeg=    0 IThEnd=   47 CPU=   -1 GPU=   -1 NThAct=   17.
 IPart= 17 NShTot=        4836 NBatch=         186 AvBLen=        26.0
 PrsmSu-ThDecC:  IPartSL=   17    0 NPrtUSL=   48    1 IThBeg=    0 IThEnd=   47 CPU=   -1 GPU=   -1 NThAct=   16.
 IPart= 41 NShTot=        4446 NBatch=         171 AvBLen=        26.0
 PrsmSu-ThDecC:  IPartSL=   41    0 NPrtUSL=   48    1 IThBeg=    0 IThEnd=   47 CPU=   -1 GPU=   -1 NThAct=   15.
 IPart= 12 NShTot=        5070 NBatch=         195 AvBLen=        26.0
 PrsmSu-ThDecC:  IPartSL=   12    0 NPrtUSL=   48    1 IThBeg=    0 IThEnd=   47 CPU=   -1 GPU=   -1 NThAct=   14.
 IPart= 40 NShTot=        4472 NBatch=         172 AvBLen=        26.0
 PrsmSu-ThDecC:  IPartSL=   40    0 NPrtUSL=   48    1 IThBeg=    0 IThEnd=   47 CPU=   -1 GPU=   -1 NThAct=   13.
 IPart= 29 NShTot=        4576 NBatch=         176 AvBLen=        26.0
 PrsmSu-ThDecC:  IPartSL=   29    0 NPrtUSL=   48    1 IThBeg=    0 IThEnd=   47 CPU=   -1 GPU=   -1 NThAct=   12.
 IPart= 34 NShTot=        4550 NBatch=         175 AvBLen=        26.0
 PrsmSu-ThDecC:  IPartSL=   34    0 NPrtUSL=   48    1 IThBeg=    0 IThEnd=   47 CPU=   -1 GPU=   -1 NThAct=   11.
 IPart=  6 NShTot=        5304 NBatch=         204 AvBLen=        26.0
 PrsmSu-ThDecC:  IPartSL=    6    0 NPrtUSL=   48    1 IThBeg=    0 IThEnd=   47 CPU=   -1 GPU=   -1 NThAct=   10.
 IPart= 46 NShTot=        4368 NBatch=         168 AvBLen=        26.0
 PrsmSu-ThDecC:  IPartSL=   46    0 NPrtUSL=   48    1 IThBeg=    0 IThEnd=   47 CPU=   -1 GPU=   -1 NThAct=    9.
 IPart=  4 NShTot=        5434 NBatch=         209 AvBLen=        26.0
 PrsmSu-ThDecC:  IPartSL=    4    0 NPrtUSL=   48    1 IThBeg=    0 IThEnd=   47 CPU=   -1 GPU=   -1 NThAct=    8.
 IPart= 10 NShTot=        5174 NBatch=         199 AvBLen=        26.0
 IPart= 19 NShTot=        4836 NBatch=         186 AvBLen=        26.0
 PrsmSu-ThDecC:  IPartSL=   10    0 NPrtUSL=   48    1 IThBeg=    0 IThEnd=   47 CPU=   -1 GPU=   -1 NThAct=    7.
 IPart= 15 NShTot=        4940 NBatch=         190 AvBLen=        26.0
 PrsmSu-ThDecC:  IPartSL=   19    0 NPrtUSL=   48    1 IThBeg=    0 IThEnd=   47 CPU=   -1 GPU=   -1 NThAct=    6.
 PrsmSu-ThDecC:  IPartSL=   15    0 NPrtUSL=   48    1 IThBeg=    0 IThEnd=   47 CPU=   -1 GPU=   -1 NThAct=    5.
 IPart= 38 NShTot=        4472 NBatch=         172 AvBLen=        26.0
 PrsmSu-ThDecC:  IPartSL=   38    0 NPrtUSL=   48    1 IThBeg=    0 IThEnd=   47 CPU=   -1 GPU=   -1 NThAct=    4.
 IPart= 25 NShTot=        4706 NBatch=         181 AvBLen=        26.0
 PrsmSu-ThDecC:  IPartSL=   25    0 NPrtUSL=   48    1 IThBeg=    0 IThEnd=   47 CPU=   -1 GPU=   -1 NThAct=    3.
 IPart= 14 NShTot=        4992 NBatch=         192 AvBLen=        26.0
 PrsmSu-ThDecC:  IPartSL=   14    0 NPrtUSL=   48    1 IThBeg=    0 IThEnd=   47 CPU=   -1 GPU=   -1 NThAct=    2.
 IPart=  7 NShTot=        5252 NBatch=         202 AvBLen=        26.0
 PrsmSu-ThDecC:  IPartSL=    7    0 NPrtUSL=   48    1 IThBeg=    0 IThEnd=   47 CPU=   -1 GPU=   -1 NThAct=    1.
 PrSmSu:  NxtVal=           2305.
 --------------------------------------------------------
       Center         ----      EFG at Nuclei      ----
                      3XX-RR        3YY-RR        3ZZ-RR
 --------------------------------------------------------
     1   Atom       -0.157754      0.083217      0.074537
     2   Atom        0.066204      0.117909     -0.184112
     3   Atom        0.135863     -0.273267      0.137404
     4   Atom        0.040349      0.019350     -0.059699
     5   Atom       -0.206382      0.236701     -0.030319
     6   Atom       -0.408748      1.021869     -0.613121
     7   Atom       -1.139773      1.032729      0.107044
     8   Atom       -0.273500      0.146852      0.126648
     9   Atom        0.124321     -0.186859      0.062538
    10   Atom       -0.052654      0.143858     -0.091204
    11   Atom        0.126826     -0.171274      0.044447
    12   Atom       -0.034487      0.133506     -0.099019
    13   Atom       -0.156590      0.072412      0.084177
    14   Atom        0.722479     -0.375158     -0.347321
    15   Atom        0.063644     -0.022164     -0.041479
    16   Atom       -0.145745      0.087784      0.057961
    17   Atom        0.133926     -0.198025      0.064099
    18   Atom       -0.069283      0.134010     -0.064726
    19   Atom       -0.062972      0.114161     -0.051189
    20   Atom       -0.185316      0.091065      0.094251
    21   Atom        0.093140     -0.003451     -0.089689
    22   Atom        0.135661     -0.210443      0.074781
    23   Atom       -0.047773      0.028632      0.019141
    24   Atom        0.118736     -0.125936      0.007200
    25   Atom       -0.022900      0.108833     -0.085933
    26   Atom        0.028533     -0.031357      0.002824
 --------------------------------------------------------
                        XY            XZ            YZ
 --------------------------------------------------------
     1   Atom        0.144976     -0.169505      0.071009
     2   Atom       -0.057502      0.278327      0.133525
     3   Atom        0.095672      0.015727     -0.097525
     4   Atom        0.013113      0.194813      0.095438
     5   Atom       -0.083661      0.182646      0.263668
     6   Atom       -1.073760      0.366803     -0.358695
     7   Atom        1.367576      0.052305      0.546593
     8   Atom        0.195814      0.262031     -0.053318
     9   Atom       -0.067261     -0.027970     -0.171825
    10   Atom        0.039474     -0.209783      0.037125
    11   Atom       -0.058474      0.025173     -0.099352
    12   Atom        0.020702     -0.207058      0.026361
    13   Atom        0.137488      0.142668     -0.067568
    14   Atom       -0.644950     -0.644488      0.287224
    15   Atom       -0.073257      0.102373      0.147550
    16   Atom        0.130552      0.168667     -0.064472
    17   Atom       -0.090842     -0.039207     -0.158970
    18   Atom        0.051805     -0.216409      0.063078
    19   Atom        0.023823     -0.154530      0.008499
    20   Atom        0.146677      0.121594     -0.056271
    21   Atom       -0.095265      0.106069      0.190865
    22   Atom       -0.068426     -0.038665     -0.157814
    23   Atom        0.052985     -0.015124      0.043519
    24   Atom       -0.087694      0.061886      0.203917
    25   Atom        0.090456      0.198449     -0.101945
    26   Atom       -0.143686     -0.135958     -0.160468
 --------------------------------------------------------


 ---------------------------------------------------------------------------------
              Nuclear Quadrupole Coupling Constant in Principal Axis System
 ---------------------------------------------------------------------------------

       Atom             a.u.   MegaHertz   Gauss  10(-4) cm-1        Axes

              Baa    -0.6758     3.246     1.158     1.083  0.5014  0.8243  0.2629
    14 N(14)  Bbb    -0.6434     3.090     1.103     1.031  0.2203 -0.4155  0.8825
              Bcc     1.3192    -6.336    -2.261    -2.113  0.8367 -0.3846 -0.3899
 

 ---------------------------------------------------------------------------------

 No NMR shielding tensors so no spin-rotation constants.
 Leave Link  601 at Thu Apr 21 16:33:25 2022, MaxMem= 25769803776 cpu:               8.5 elap:               0.2
 Calling FoFJK, ICntrl=      2127 FMM=F ISym2X=0 I1Cent= 0 IOpClX= 0 NMat=1 NMatS=1 NMatT=0.
 ***** Axes restored to original set *****
 -------------------------------------------------------------------
 Center     Atomic                   Forces (Hartrees/Bohr)
 Number     Number              X              Y              Z
 -------------------------------------------------------------------
      1        1           0.001034451    0.004308500   -0.007808789
      2        6           0.008459060   -0.006342483    0.000654427
      3        1          -0.001663136   -0.000754822   -0.001923399
      4        6           0.008599241    0.006762604   -0.000931680
      5        6          -0.001243031    0.015115973   -0.016278692
      6        8           0.005742975    0.002972958    0.020420385
      7        8          -0.004131640   -0.003561531    0.006516859
      8        6          -0.009910865   -0.004730598   -0.005402608
      9        1          -0.002110137    0.000203207    0.002661646
     10        1           0.004366068    0.001481406   -0.007428187
     11        6          -0.006112153   -0.004248882    0.006866102
     12        1          -0.000298585    0.003974558    0.006229957
     13        1          -0.000506218   -0.006441515    0.000928961
     14        7          -0.001802536   -0.009663264    0.007566715
     15        6           0.004098525    0.004986105   -0.006326818
     16        1          -0.003606031   -0.003784156    0.001651512
     17        1           0.003767135   -0.002408603    0.001390132
     18        1           0.003359864   -0.003451905   -0.001392080
     19        6           0.002717791    0.006875871   -0.002048668
     20        1          -0.001150814   -0.004227423    0.003145539
     21        1          -0.003640084    0.000592259    0.000100246
     22        1          -0.001477954   -0.001588786   -0.002985075
     23        6          -0.003487579    0.003895898   -0.009387115
     24        1           0.001702760    0.001514946   -0.001004541
     25        1          -0.002392219    0.000097291    0.000451072
     26        1          -0.000314888   -0.001577609    0.004334101
 -------------------------------------------------------------------
 Cartesian Forces:  Max     0.020420385 RMS     0.005501733

 GradGradGradGradGradGradGradGradGradGradGradGradGradGradGradGradGradGrad
 Berny optimization.
 FormGI is forming the generalized inverse of G from B-inverse, IUseBI=4.
 Internal  Forces:  Max     0.059845622 RMS     0.011052803
 Search for a local minimum.
 Step number   1 out of a maximum of  124
 All quantities printed in internal units (Hartrees-Bohrs-Radians)
 Mixed Optimization -- RFO/linear search
 Second derivative matrix not updated -- first step.
 ITU=  0
     Eigenvalues ---    0.00272   0.00669   0.00740   0.00826   0.00835
     Eigenvalues ---    0.00869   0.01198   0.01326   0.01422   0.02197
     Eigenvalues ---    0.02840   0.02843   0.02843   0.03875   0.05080
     Eigenvalues ---    0.05415   0.05735   0.07036   0.07041   0.07098
     Eigenvalues ---    0.07293   0.07361   0.07378   0.09549   0.11352
     Eigenvalues ---    0.13009   0.13740   0.16000   0.16000   0.16000
     Eigenvalues ---    0.16000   0.16000   0.16000   0.16000   0.16000
     Eigenvalues ---    0.16000   0.16000   0.16000   0.16634   0.17169
     Eigenvalues ---    0.21937   0.22083   0.24999   0.25000   0.25000
     Eigenvalues ---    0.25000   0.25000   0.28754   0.32173   0.33207
     Eigenvalues ---    0.33809   0.33885   0.34081   0.34088   0.34113
     Eigenvalues ---    0.34148   0.34171   0.34186   0.34189   0.34216
     Eigenvalues ---    0.34252   0.34323   0.34373   0.34882   0.35227
     Eigenvalues ---    0.35228   0.36287   0.36373   0.39954   0.52584
     Eigenvalues ---    0.56548   0.95213
 RFO step:  Lambda=-6.62664401D-02 EMin= 2.71715845D-03
 Linear search not attempted -- first point.
 Maximum step size (   0.300) exceeded in Quadratic search.
    -- Step size scaled by   0.871
 Iteration  1 RMS(Cart)=  0.42770104 RMS(Int)=  0.02836335
 Iteration  2 RMS(Cart)=  0.19259859 RMS(Int)=  0.00578481
 Iteration  3 RMS(Cart)=  0.01329865 RMS(Int)=  0.00067459
 Iteration  4 RMS(Cart)=  0.00004991 RMS(Int)=  0.00067431
 Iteration  5 RMS(Cart)=  0.00000002 RMS(Int)=  0.00067431
 Variable       Old X    -DE/DX   Delta X   Delta X   Delta X     New X
                                 (Linear)    (Quad)   (Total)
    R1        2.05307  -0.00862   0.00000  -0.01795  -0.01795   2.03512
    R2        2.05308  -0.00050   0.00000  -0.00103  -0.00103   2.05205
    R3        2.53781  -0.01019   0.00000  -0.01406  -0.01406   2.52375
    R4        2.81989   0.00196   0.00000   0.00428   0.00428   2.82417
    R5        2.83828   0.00749   0.00000   0.01682   0.01682   2.85511
    R6        2.30619  -0.01991   0.00000  -0.01703  -0.01703   2.28916
    R7        2.57345   0.01166   0.00000   0.01716   0.01716   2.59061
    R8        2.71616   0.02560   0.00000   0.04789   0.04789   2.76405
    R9        2.07140  -0.00212   0.00000  -0.00454  -0.00454   2.06686
   R10        2.06906  -0.00583   0.00000  -0.01242  -0.01242   2.05665
   R11        2.90519   0.00152   0.00000   0.00375   0.00375   2.90895
   R12        2.07525  -0.00554   0.00000  -0.01192  -0.01192   2.06333
   R13        2.07653   0.00589   0.00000   0.01269   0.01269   2.08921
   R14        2.79166  -0.01007   0.00000  -0.02115  -0.02115   2.77052
   R15        2.76802  -0.00796   0.00000  -0.01613  -0.01613   2.75189
   R16        2.76935  -0.00289   0.00000  -0.00586  -0.00586   2.76349
   R17        2.07042   0.00536   0.00000   0.01146   0.01146   2.08188
   R18        2.07081  -0.00215   0.00000  -0.00460  -0.00460   2.06621
   R19        2.06788  -0.00048   0.00000  -0.00103  -0.00103   2.06685
   R20        2.07182   0.00524   0.00000   0.01122   0.01122   2.08304
   R21        2.06968  -0.00366   0.00000  -0.00780  -0.00780   2.06187
   R22        2.07194  -0.00246   0.00000  -0.00527  -0.00527   2.06666
   R23        2.07017  -0.00109   0.00000  -0.00232  -0.00232   2.06785
   R24        2.07013  -0.00140   0.00000  -0.00300  -0.00300   2.06713
   R25        2.06704  -0.00293   0.00000  -0.00622  -0.00622   2.06082
    A1        2.03492   0.00201   0.00000   0.00776   0.00776   2.04268
    A2        2.13954  -0.00014   0.00000  -0.00052  -0.00052   2.13902
    A3        2.10872  -0.00188   0.00000  -0.00724  -0.00724   2.10148
    A4        2.13913   0.00167   0.00000   0.00458   0.00457   2.14370
    A5        2.10826   0.00182   0.00000   0.00500   0.00499   2.11325
    A6        2.03578  -0.00349   0.00000  -0.00962  -0.00963   2.02615
    A7        2.14503  -0.00516   0.00000  -0.01446  -0.01673   2.12830
    A8        1.95681   0.02797   0.00000   0.07683   0.07467   2.03147
    A9        2.18131  -0.02290   0.00000  -0.06334  -0.06542   2.11590
   A10        1.96939   0.04887   0.00000   0.13465   0.13465   2.10404
   A11        1.90715  -0.01994   0.00000  -0.05828  -0.05848   1.84867
   A12        1.88411  -0.02033   0.00000  -0.05329  -0.05636   1.82775
   A13        1.92074   0.05985   0.00000   0.18948   0.18873   2.10947
   A14        1.91471   0.00371   0.00000  -0.01697  -0.01965   1.89507
   A15        1.91420  -0.01448   0.00000  -0.04436  -0.04395   1.87025
   A16        1.92264  -0.00889   0.00000  -0.01693  -0.01832   1.90432
   A17        1.90912  -0.00382   0.00000  -0.00768  -0.00764   1.90148
   A18        1.87216  -0.00531   0.00000  -0.01605  -0.01597   1.85619
   A19        1.98931   0.01686   0.00000   0.05291   0.05297   2.04228
   A20        1.84415   0.00270   0.00000   0.00314   0.00285   1.84701
   A21        1.93858  -0.00661   0.00000  -0.02090  -0.02110   1.91748
   A22        1.90369  -0.00480   0.00000  -0.01494  -0.01492   1.88877
   A23        1.96007  -0.00976   0.00000  -0.03540  -0.03551   1.92456
   A24        1.92647   0.00921   0.00000   0.03548   0.03558   1.96205
   A25        1.90997   0.00104   0.00000   0.00537   0.00574   1.91571
   A26        1.95630   0.00287   0.00000   0.01014   0.01017   1.96647
   A27        1.93034  -0.00423   0.00000  -0.01559  -0.01562   1.91472
   A28        1.94393  -0.00484   0.00000  -0.01845  -0.01848   1.92545
   A29        1.89201   0.00057   0.00000   0.00182   0.00185   1.89386
   A30        1.89663   0.00043   0.00000   0.00035   0.00038   1.89701
   A31        1.84021   0.00551   0.00000   0.02304   0.02295   1.86316
   A32        1.95668   0.00222   0.00000   0.00881   0.00880   1.96547
   A33        1.93494   0.00089   0.00000   0.00416   0.00414   1.93907
   A34        1.92812  -0.00410   0.00000  -0.01676  -0.01674   1.91137
   A35        1.89398  -0.00077   0.00000  -0.00120  -0.00124   1.89275
   A36        1.88765   0.00039   0.00000   0.00019   0.00022   1.88787
   A37        1.85912   0.00136   0.00000   0.00472   0.00472   1.86384
   A38        1.92735   0.00321   0.00000   0.01220   0.01221   1.93956
   A39        1.92551   0.00134   0.00000   0.00539   0.00538   1.93090
   A40        1.97348  -0.00552   0.00000  -0.02130  -0.02127   1.95222
   A41        1.89470  -0.00229   0.00000  -0.00870  -0.00874   1.88596
   A42        1.87052   0.00093   0.00000   0.00317   0.00323   1.87374
   A43        1.86938   0.00232   0.00000   0.00922   0.00924   1.87862
    D1       -0.00330   0.00159   0.00000   0.01408   0.01406   0.01075
    D2       -3.13839   0.00234   0.00000   0.02206   0.02208  -3.11631
    D3        3.13627   0.00120   0.00000   0.01048   0.01046  -3.13646
    D4        0.00118   0.00195   0.00000   0.01846   0.01848   0.01966
    D5        2.79259   0.01233   0.00000   0.13920   0.13975   2.93233
    D6       -0.35742   0.00131   0.00000   0.01875   0.01818  -0.33924
    D7       -0.35526   0.01163   0.00000   0.13158   0.13215  -0.22311
    D8        2.77792   0.00061   0.00000   0.01113   0.01058   2.78850
    D9       -1.05717  -0.00043   0.00000  -0.00418  -0.00420  -1.06137
   D10        1.03739  -0.00036   0.00000  -0.00371  -0.00368   1.03371
   D11        3.13033  -0.00016   0.00000  -0.00245  -0.00243   3.12790
   D12        2.09056   0.00025   0.00000   0.00330   0.00325   2.09381
   D13       -2.09807   0.00033   0.00000   0.00377   0.00378  -2.09429
   D14       -0.00513   0.00052   0.00000   0.00502   0.00503  -0.00011
   D15        2.10301   0.03691   0.00000   0.37084   0.36946   2.47247
   D16       -1.04720   0.02573   0.00000   0.24771   0.24909  -0.79811
   D17        1.39627   0.00355   0.00000  -0.01797  -0.02022   1.37604
   D18       -2.80547  -0.01514   0.00000  -0.10245  -0.10016  -2.90562
   D19       -0.70658  -0.00320   0.00000  -0.04421  -0.04425  -0.75083
   D20        1.13454  -0.00274   0.00000  -0.03500  -0.03565   1.09889
   D21        3.12676  -0.00427   0.00000  -0.04359  -0.04424   3.08252
   D22       -1.04721  -0.00348   0.00000  -0.04052  -0.04129  -1.08850
   D23       -0.96405  -0.00647   0.00000  -0.05376  -0.05350  -1.01755
   D24        1.02817  -0.00801   0.00000  -0.06234  -0.06208   0.96609
   D25        3.13739  -0.00721   0.00000  -0.05928  -0.05913   3.07825
   D26       -3.07320   0.00386   0.00000   0.00650   0.00701  -3.06619
   D27       -1.08098   0.00233   0.00000  -0.00208  -0.00158  -1.08256
   D28        1.02823   0.00312   0.00000   0.00098   0.00137   1.02960
   D29        3.14156  -0.00195   0.00000  -0.02373  -0.02362   3.11794
   D30       -1.00514  -0.00080   0.00000  -0.01599  -0.01621  -1.02135
   D31        0.97557  -0.00450   0.00000  -0.03733  -0.03700   0.93857
[...]
 **** Fit      -0.001274
 **** Fit      -0.000715
 **** Fit       0.000024
 **** Fit       0.000939
 **** Fit       0.001954
 **** Fit       0.002858
 **** Fit       0.003297
 **** Fit       0.002966
 **** Fit       0.001933
 **** Fit       0.000648
 **** Fit      -0.000442
 **** Fit      -0.001173
 **** Fit      -0.001591
 **** Fit      -0.001792
 **** Fit      -0.001861
 **** Fit      -0.001861
 **** Fit      -0.001470
 **** Fit      -0.000946
 **** Fit      -0.000249
 **** Fit       0.000608
 **** Fit       0.001540
 **** Fit       0.002342
 **** Fit       0.002698
 **** Fit       0.002359
 **** Fit       0.001382
 **** Fit       0.000145
 **** Fit      -0.000948
 **** Fit      -0.001707
 **** Fit      -0.002140
 **** Fit      -0.002335
 **** Fit      -0.002383
 **** Fit      -0.001787
 **** Fit      -0.001353
 **** Fit      -0.000779
 **** Fit      -0.000087
 **** Fit       0.000637
 **** Fit       0.001221
 **** Fit       0.001435
 **** Fit       0.001115
 **** Fit       0.000314
 **** Fit      -0.000702
 **** Fit      -0.001630
 **** Fit      -0.002300
 **** Fit      -0.002691
 **** Fit      -0.002861
 **** Fit      -0.001879
 **** Fit      -0.001469
 **** Fit      -0.000986
 **** Fit      -0.000505
 **** Fit      -0.000151
 **** Fit      -0.000072
 **** Fit      -0.000357
 **** Fit      -0.000963
 **** Fit      -0.001718
 **** Fit      -0.002420
 **** Fit      -0.002941
 **** Fit      -0.003248
 **** Fit      -0.003371
 **** Fit      -0.002207
 **** Fit      -0.001925
 **** Fit      -0.001661
 **** Fit      -0.001496
 **** Fit      -0.001515
 **** Fit      -0.001762
 **** Fit      -0.002202
 **** Fit      -0.002729
 **** Fit      -0.003218
 **** Fit      -0.003582
 **** Fit      -0.003789
 **** Fit      -0.002788
 **** Fit      -0.002692
 **** Fit      -0.002662
 **** Fit      -0.002744
 **** Fit      -0.002955
 **** Fit      -0.003269
 **** Fit      -0.003623
 **** Fit      -0.003941
 **** Fit      -0.004168
 **** Fit      -0.003592
 **** Fit      -0.003710
 **** Fit      -0.003891
 **** Fit      -0.004116
 **** Fit      -0.004346
 **** Fit       0.005890
 **** Fit       0.005772
 **** Fit       0.006186
 **** Fit       0.006395
 **** Fit       0.006369
 **** Fit       0.006111
 **** Fit       0.005652
 **** Fit       0.005053
 **** Fit       0.004385
 **** Fit       0.005125
 **** Fit       0.005852
 **** Fit       0.006438
 **** Fit       0.006807
 **** Fit       0.006894
 **** Fit       0.006672
 **** Fit       0.006172
 **** Fit       0.005477
 **** Fit       0.004693
 **** Fit       0.003909
 **** Fit       0.004013
 **** Fit       0.004930
 **** Fit       0.005833
 **** Fit       0.006638
 **** Fit       0.007227
 **** Fit       0.007474
 **** Fit       0.007305
 **** Fit       0.006745
 **** Fit       0.005918
 **** Fit       0.004982
 **** Fit       0.004065
 **** Fit       0.003242
 **** Fit       0.002662
 **** Fit       0.003579
 **** Fit       0.004599
 **** Fit       0.005685
 **** Fit       0.006746
 **** Fit       0.007614
 **** Fit       0.008071
 **** Fit       0.007965
 **** Fit       0.007319
 **** Fit       0.006318
 **** Fit       0.005199
 **** Fit       0.004137
 **** Fit       0.003219
 **** Fit       0.002117
 **** Fit       0.003032
 **** Fit       0.004109
 **** Fit       0.005344
 **** Fit       0.006657
 **** Fit       0.007830
 **** Fit       0.008530
 **** Fit       0.008495
 **** Fit       0.007743
 **** Fit       0.006551
 **** Fit       0.005250
 **** Fit       0.004063
 **** Fit       0.003076
 **** Fit       0.002295
 **** Fit       0.000837
 **** Fit       0.001533
 **** Fit       0.002385
 **** Fit       0.003437
 **** Fit       0.004725
 **** Fit       0.006202
 **** Fit       0.007620
 **** Fit       0.008538
 **** Fit       0.008580
 **** Fit       0.007754
 **** Fit       0.006427
 **** Fit       0.005017
 **** Fit       0.003777
 **** Fit       0.002784
 **** Fit       0.002020
 **** Fit       0.000363
 **** Fit       0.000953
 **** Fit       0.001679
 **** Fit       0.002601
 **** Fit       0.003790
 **** Fit       0.005241
 **** Fit       0.006720
 **** Fit       0.007741
 **** Fit       0.007862
 **** Fit       0.007072
 **** Fit       0.005773
 **** Fit       0.004414
 **** Fit       0.003246
 **** Fit       0.002332
 **** Fit       0.001643
 **** Fit      -0.000028
 **** Fit       0.000441
 **** Fit       0.000999
 **** Fit       0.001705
 **** Fit       0.002642
 **** Fit       0.003839
 **** Fit       0.005123
 **** Fit       0.006068
 **** Fit       0.006258
 **** Fit       0.005653
 **** Fit       0.004592
 **** Fit       0.003470
 **** Fit       0.002505
 **** Fit       0.001752
 **** Fit       0.001184
 **** Fit      -0.000299
 **** Fit       0.000067
 **** Fit       0.000465
 **** Fit       0.000933
 **** Fit       0.001543
 **** Fit       0.002344
 **** Fit       0.003246
 **** Fit       0.003962
 **** Fit       0.004178
 **** Fit       0.003830
 **** Fit       0.003128
 **** Fit       0.002347
 **** Fit       0.001656
 **** Fit       0.001105
 **** Fit       0.000682
 **** Fit      -0.000742
 **** Fit      -0.000428
 **** Fit      -0.000113
 **** Fit       0.000184
 **** Fit       0.000472
 **** Fit       0.000794
 **** Fit       0.001202
 **** Fit       0.001682
 **** Fit       0.002097
 **** Fit       0.002264
 **** Fit       0.002108
 **** Fit       0.001721
 **** Fit       0.001254
 **** Fit       0.000820
 **** Fit       0.000460
 **** Fit       0.000174
 **** Fit      -0.000763
 **** Fit      -0.000429
 **** Fit      -0.000099
 **** Fit       0.000188
 **** Fit       0.000404
 **** Fit       0.000549
 **** Fit       0.000659
 **** Fit       0.000771
 **** Fit       0.000875
 **** Fit       0.000903
 **** Fit       0.000801
 **** Fit       0.000587
 **** Fit       0.000326
 **** Fit       0.000075
 **** Fit      -0.000139
 **** Fit      -0.000316
 **** Fit      -0.000747
 **** Fit      -0.000362
 **** Fit       0.000035
 **** Fit       0.000388
 **** Fit       0.000634
 **** Fit       0.000718
 **** Fit       0.000639
 **** Fit       0.000461
 **** Fit       0.000267
 **** Fit       0.000092
 **** Fit      -0.000077
 **** Fit      -0.000250
 **** Fit      -0.000416
 **** Fit      -0.000561
 **** Fit      -0.000680
 **** Fit      -0.000758
 **** Fit      -0.000319
 **** Fit       0.000153
 **** Fit       0.000595
 **** Fit       0.000912
 **** Fit       0.001001
 **** Fit       0.000822
 **** Fit       0.000441
 **** Fit       0.000002
 **** Fit      -0.000380
 **** Fit      -0.000668
 **** Fit      -0.000873
 **** Fit      -0.001014
 **** Fit      -0.001109
 **** Fit      -0.000854
 **** Fit      -0.000392
 **** Fit       0.000119
 **** Fit       0.000609
 **** Fit       0.000968
 **** Fit       0.001070
 **** Fit       0.000849
 **** Fit       0.000364
 **** Fit      -0.000218
 **** Fit      -0.000742
 **** Fit      -0.001130
 **** Fit      -0.001382
 **** Fit      -0.001528
 **** Fit      -0.001067
 **** Fit      -0.000629
 **** Fit      -0.000142
 **** Fit       0.000324
 **** Fit       0.000663
 **** Fit       0.000751
 **** Fit       0.000522
 **** Fit       0.000028
 **** Fit      -0.000583
 **** Fit      -0.001148
 **** Fit      -0.001577
 **** Fit      -0.001852
 **** Fit      -0.002002
 **** Fit      -0.001394
 **** Fit      -0.001026
 **** Fit      -0.000620
 **** Fit      -0.000237
 **** Fit       0.000028
 **** Fit       0.000078
 **** Fit      -0.000139
 **** Fit      -0.000583
 **** Fit      -0.001132
 **** Fit      -0.001654
 **** Fit      -0.002058
 **** Fit      -0.002320
 **** Fit      -0.002457
 **** Fit      -0.001534
 **** Fit      -0.001239
 **** Fit      -0.000971
 **** Fit      -0.000800
 **** Fit      -0.000797
 **** Fit      -0.000995
 **** Fit      -0.001361
 **** Fit      -0.001808
 **** Fit      -0.002237
 **** Fit      -0.002574
 **** Fit      -0.002792
 **** Fit      -0.001908
 **** Fit      -0.001755
 **** Fit      -0.001676
 **** Fit      -0.001715
 **** Fit      -0.001890
 **** Fit      -0.002178
 **** Fit      -0.002518
 **** Fit      -0.002841
 **** Fit      -0.003093
 **** Fit      -0.002494
 **** Fit      -0.002490
 **** Fit      -0.002562
 **** Fit      -0.002716
 **** Fit      -0.002936
 **** Fit      -0.003182
 **** Fit      -0.003409
 **** Fit       0.005236
 **** Fit       0.005239
 **** Fit       0.005069
 **** Fit       0.004764
 **** Fit       0.005195
 **** Fit       0.005467
 **** Fit       0.005540
 **** Fit       0.005396
 **** Fit       0.005056
 **** Fit       0.004568
 **** Fit       0.003997
 **** Fit       0.004057
 **** Fit       0.004699
 **** Fit       0.005253
 **** Fit       0.005646
 **** Fit       0.005808
 **** Fit       0.005702
 **** Fit       0.005342
 **** Fit       0.004794
 **** Fit       0.004146
 **** Fit       0.003480
 **** Fit       0.003047
 **** Fit       0.003777
 **** Fit       0.004516
 **** Fit       0.005198
 **** Fit       0.005726
 **** Fit       0.005993
 **** Fit       0.005931
 **** Fit       0.005550
 **** Fit       0.004937
 **** Fit       0.004210
 **** Fit       0.003475
 **** Fit       0.002797
 **** Fit       0.002619
 **** Fit       0.003375
 **** Fit       0.004180
 **** Fit       0.004969
 **** Fit       0.005623
 **** Fit       0.005997
 **** Fit       0.005984
 **** Fit       0.005589
 **** Fit       0.004921
 **** Fit       0.004133
 **** Fit       0.003350
 **** Fit       0.002645
 **** Fit       0.001478
 **** Fit       0.002115
 **** Fit       0.002846
 **** Fit       0.003659
 **** Fit       0.004497
 **** Fit       0.005233
 **** Fit       0.005689
 **** Fit       0.005727
 **** Fit       0.005341
 **** Fit       0.004660
 **** Fit       0.003857
 **** Fit       0.003072
 **** Fit       0.002378
 **** Fit       0.001012
 **** Fit       0.001568
 **** Fit       0.002215
 **** Fit       0.002957
 **** Fit       0.003754
 **** Fit       0.004489
 **** Fit       0.004975
 **** Fit       0.005059
 **** Fit       0.004724
 **** Fit       0.004096
 **** Fit       0.003352
 **** Fit       0.002629
 **** Fit       0.001995
 **** Fit       0.001468
 **** Fit       0.000584
 **** Fit       0.001033
 **** Fit       0.001550
 **** Fit       0.002149
 **** Fit       0.002812
 **** Fit       0.003447
 **** Fit       0.003895
 **** Fit       0.004011
 **** Fit       0.003766
 **** Fit       0.003262
 **** Fit       0.002649
 **** Fit       0.002047
 **** Fit       0.001516
 **** Fit       0.001073
 **** Fit       0.000238
 **** Fit       0.000581
 **** Fit       0.000954
 **** Fit       0.001375
 **** Fit       0.001844
 **** Fit       0.002309
 **** Fit       0.002658
 **** Fit       0.002777
 **** Fit       0.002632
 **** Fit       0.002283
 **** Fit       0.001839
 **** Fit       0.001388
 **** Fit       0.000983
 **** Fit      -0.000268
 **** Fit       0.000006
 **** Fit       0.000270
 **** Fit       0.000524
 **** Fit       0.000780
 **** Fit       0.001049
 **** Fit       0.001318
 **** Fit       0.001530
 **** Fit       0.001614
 **** Fit       0.001536
 **** Fit       0.001320
 **** Fit       0.001030
 **** Fit       0.000723
 **** Fit       0.000439
 **** Fit      -0.000372
 **** Fit      -0.000112
 **** Fit       0.000117
 **** Fit       0.000300
 **** Fit       0.000436
 **** Fit       0.000541
 **** Fit       0.000627
 **** Fit       0.000688
 **** Fit       0.000696
 **** Fit       0.000627
 **** Fit       0.000487
 **** Fit       0.000302
 **** Fit       0.000105
 **** Fit      -0.000082
 **** Fit      -0.000431
 **** Fit      -0.000158
 **** Fit       0.000075
 **** Fit       0.000236
 **** Fit       0.000307
 **** Fit       0.000295
 **** Fit       0.000230
 **** Fit       0.000143
 **** Fit       0.000046
 **** Fit      -0.000062
 **** Fit      -0.000186
 **** Fit      -0.000317
 **** Fit      -0.000447
 **** Fit      -0.000500
 **** Fit      -0.000204
 **** Fit       0.000050
 **** Fit       0.000217
 **** Fit       0.000261
 **** Fit       0.000177
 **** Fit       0.000001
 **** Fit      -0.000211
 **** Fit      -0.000412
 **** Fit      -0.000585
 **** Fit      -0.000727
 **** Fit      -0.000843
 **** Fit      -0.000630
 **** Fit      -0.000325
 **** Fit      -0.000058
 **** Fit       0.000114
 **** Fit       0.000147
 **** Fit       0.000025
 **** Fit      -0.000216
 **** Fit      -0.000510
 **** Fit      -0.000790
 **** Fit      -0.001019
 **** Fit      -0.001188
 **** Fit      -0.000853
 **** Fit      -0.000566
 **** Fit      -0.000314
 **** Fit      -0.000154
 **** Fit      -0.000133
 **** Fit      -0.000270
 **** Fit      -0.000534
 **** Fit      -0.000858
 **** Fit      -0.001172
 **** Fit      -0.001429
 **** Fit      -0.001613
 **** Fit      -0.000930
 **** Fit      -0.000720
 **** Fit      -0.000593
 **** Fit      -0.000590
 **** Fit      -0.000728
 **** Fit      -0.000982
 **** Fit      -0.001293
 **** Fit      -0.001598
 **** Fit      -0.001849
 **** Fit      -0.001384
 **** Fit      -0.001234
 **** Fit      -0.001152
 **** Fit      -0.001172
 **** Fit      -0.001304
 **** Fit      -0.001528
 **** Fit      -0.001799
 **** Fit      -0.002064
 **** Fit      -0.002284
 **** Fit      -0.001759
 **** Fit      -0.001800
 **** Fit      -0.001923
 **** Fit      -0.002111
 **** Fit      -0.002330
 **** Fit       0.004471
 **** Fit       0.004376
 **** Fit       0.004196
 **** Fit       0.004462
 **** Fit       0.004571
 **** Fit       0.004501
 **** Fit       0.004262
 **** Fit       0.003889
 **** Fit       0.003111
 **** Fit       0.003623
 **** Fit       0.004075
 **** Fit       0.004411
 **** Fit       0.004575
 **** Fit       0.004534
 **** Fit       0.004295
 **** Fit       0.003901
 **** Fit       0.003414
 **** Fit       0.002781
 **** Fit       0.003324
 **** Fit       0.003824
 **** Fit       0.004216
 **** Fit       0.004431
 **** Fit       0.004422
 **** Fit       0.004191
 **** Fit       0.003787
 **** Fit       0.003283
 **** Fit       0.002752
 **** Fit       0.001844
 **** Fit       0.002364
 **** Fit       0.002902
 **** Fit       0.003416
 **** Fit       0.003838
 **** Fit       0.004089
 **** Fit       0.004111
 **** Fit       0.003900
 **** Fit       0.003507
 **** Fit       0.003014
 **** Fit       0.002495
 **** Fit       0.001414
 **** Fit       0.001880
 **** Fit       0.002372
 **** Fit       0.002856
 **** Fit       0.003268
 **** Fit       0.003528
 **** Fit       0.003575
 **** Fit       0.003399
 **** Fit       0.003048
 **** Fit       0.002599
 **** Fit       0.002125
 **** Fit       0.000986
 **** Fit       0.001374
 **** Fit       0.001785
 **** Fit       0.002194
 **** Fit       0.002552
 **** Fit       0.002791
 **** Fit       0.002852
 **** Fit       0.002722
 **** Fit       0.002437
 **** Fit       0.002062
 **** Fit       0.001662
 **** Fit       0.000603
 **** Fit       0.000904
 **** Fit       0.001213
 **** Fit       0.001519
 **** Fit       0.001791
 **** Fit       0.001979
 **** Fit       0.002038
 **** Fit       0.001951
 **** Fit       0.001741
 **** Fit       0.001455
 **** Fit       0.001143
 **** Fit       0.000298
 **** Fit       0.000519
 **** Fit       0.000730
 **** Fit       0.000927
 **** Fit       0.001098
 **** Fit       0.001217
 **** Fit       0.001252
 **** Fit       0.001191
 **** Fit       0.001043
 **** Fit       0.000839
 **** Fit       0.000610
 **** Fit       0.000078
 **** Fit       0.000243
 **** Fit       0.000374
 **** Fit       0.000475
 **** Fit       0.000547
 **** Fit       0.000585
 **** Fit       0.000578
 **** Fit       0.000517
 **** Fit       0.000406
 **** Fit       0.000260
 **** Fit      -0.000255
 **** Fit      -0.000078
 **** Fit       0.000054
 **** Fit       0.000131
 **** Fit       0.000157
 **** Fit       0.000143
 **** Fit       0.000102
 **** Fit       0.000039
 **** Fit      -0.000044
 **** Fit      -0.000145
 **** Fit      -0.000388
 **** Fit      -0.000218
 **** Fit      -0.000103
 **** Fit      -0.000059
 **** Fit      -0.000085
 **** Fit      -0.000165
 **** Fit      -0.000274
 **** Fit      -0.000393
 **** Fit      -0.000509
 **** Fit      -0.000558
 **** Fit      -0.000394
 **** Fit      -0.000290
 **** Fit      -0.000267
 **** Fit      -0.000325
 **** Fit      -0.000449
 **** Fit      -0.000607
 **** Fit      -0.000769
 **** Fit      -0.000915
 **** Fit      -0.000642
 **** Fit      -0.000553
 **** Fit      -0.000545
 **** Fit      -0.000622
 **** Fit      -0.000767
 **** Fit      -0.000949
 **** Fit      -0.001133
 **** Fit      -0.000903
 **** Fit      -0.000909
 **** Fit      -0.000994
 **** Fit      -0.001142
 **** Fit      -0.001325
 **** Fit      -0.001341
 **** Fit      -0.001428
 **** Fit      -0.001567
 **** Fit       0.003462
 **** Fit       0.003567
 **** Fit       0.003539
 **** Fit       0.003005
 **** Fit       0.003254
 **** Fit       0.003386
 **** Fit       0.003377
 **** Fit       0.003229
 **** Fit       0.002967
 **** Fit       0.002332
 **** Fit       0.002667
 **** Fit       0.002928
 **** Fit       0.003076
 **** Fit       0.003086
 **** Fit       0.002955
 **** Fit       0.002708
 **** Fit       0.001924
 **** Fit       0.002237
 **** Fit       0.002489
 **** Fit       0.002641
 **** Fit       0.002664
 **** Fit       0.002555
 **** Fit       0.002335
 **** Fit       0.002042
 **** Fit       0.001477
 **** Fit       0.001748
 **** Fit       0.001969
 **** Fit       0.002107
 **** Fit       0.002137
 **** Fit       0.002052
 **** Fit       0.001870
 **** Fit       0.001621
 **** Fit       0.001035
 **** Fit       0.001248
 **** Fit       0.001421
 **** Fit       0.001532
 **** Fit       0.001558
 **** Fit       0.001494
 **** Fit       0.001350
 **** Fit       0.000785
 **** Fit       0.000903
 **** Fit       0.000974
 **** Fit       0.000985
 **** Fit       0.000932
 **** Fit       0.000821
 **** Fit       0.000451
 **** Fit       0.000477
 **** Fit       0.000464
 **** Fit       0.000410
 **** Fit      -0.000215
 -----------------------------------------------------------------
 Leave Link  602 at Thu Apr 21 16:49:33 2022, MaxMem=   104857600 cpu:               2.3 elap:               2.3
 (Enter /opt/ohpc/pub/libs/gaussian/g16-A.03/haswell/g16/l9999.exe)

 Test job not archived.
 1\1\GINC-CASCADEB035\SP\RB3LYP\6-311++G(d,p)\C8H15N1O2\MNG228\21-Apr-2
 022\0\\#P B3LYP/6-311++G(d,p) Geom=Allcheck SCF=Tight EmpiricalDispers
 ion=GD3BJ Pop=CHELPG SP IOp(6/33=2)\\DMAEMA geo opt\\0,1\H,0,0.4383718
 067,0.5431263713,1.7489331748\C,0,0.331615924,0.9717911228,0.761863233
 7\H,0,0.5360283082,2.0302209121,0.6442982871\C,0,-0.04810368,0.2282851
 003,-0.2805768149\C,0,-0.3510533004,-1.2246334347,-0.11915499\O,0,-0.8
 115674595,-1.9101156595,-1.0068785619\O,0,-0.0531037388,-1.7009159553,
 1.1054173476\C,0,-0.4013508035,-3.072618579,1.3725695352\H,0,-0.071684
 3668,-3.7005052711,0.5428441412\H,0,0.1765673846,-3.3251585888,2.26025
 3884\C,0,-1.8967875067,-3.2761222437,1.5852188188\H,0,-2.4061929989,-3
 .1332030638,0.6315048148\H,0,-2.0346462451,-4.339071399,1.873121454\N,
 0,-2.491409061,-2.3690706729,2.5554620528\C,0,-3.9430919456,-2.4658091
 506,2.5395624759\H,0,-4.3114640722,-3.460175221,2.8558573883\H,0,-4.36
 92081027,-1.7172412227,3.211379957\H,0,-4.3150897291,-2.2702097052,1.5
 315195052\C,0,-1.9600944177,-2.5367232754,3.8987127835\H,0,-2.11394802
 65,-3.5590785274,4.2945426483\H,0,-0.891535458,-2.317120982,3.91874301
 18\H,0,-2.4530807286,-1.8342492712,4.5737021136\C,0,-0.2320710825,0.76
 50418676,-1.6719120556\H,0,-1.2593190467,0.6129256916,-2.0125000141\H,
 0,0.0005597163,1.8301308592,-1.707905202\H,0,0.4112586307,0.2375002984
 ,-2.3811789892\\Version=ES64L-G16RevA.03\State=1-A\HF=-519.2535461\RMS
 D=9.584e-09\Dipole=0.0400342,0.0988693,0.7135868\Quadrupole=-0.2193883
 ,2.7755972,-2.5562089,0.8913456,-0.6256305,-3.1133503\PG=C01 [X(C8H15N
 1O2)]\\@


 WISDOM IS KNOWING WHAT TO DO,
 SKILL IS KNOWING HOW TO DO IT,
 AND VIRTUE IS NOT DOING IT.
 Job cpu time:       0 days  0 hours  5 minutes 12.8 seconds.
 Elapsed time:       0 days  0 hours  5 minutes 14.3 seconds.
 File lengths (MBytes):  RWF=    304 Int=      0 D2E=      0 Chk=     32 Scr=     32
 Normal termination of Gaussian 16 at Thu Apr 21 16:49:33 2022.
