 Entering Gaussian System, Link 0=g16
 Initial command:
 /opt/ohpc/pub/libs/gaussian/g16-A.03/haswell/g16/l1.exe "g16_scratch/Gau-324772.inp" -scrdir="g16_scratch/"
 Entering Link 1 = /opt/ohpc/pub/libs/gaussian/g16-A.03/haswell/g16/l1.exe PID=    324773.
  
 Copyright (c) 1988,1990,1992,1993,1995,1998,2003,2009,2016,
            Gaussian, Inc.  All Rights Reserved.
  
 This is part of the Gaussian(R) 16 program.  It is based on
 the Gaussian(R) 09 system (copyright 2009, Gaussian, Inc.),
 the Gaussian(R) 03 system (copyright 2003, Gaussian, Inc.),
 the Gaussian(R) 98 system (copyright 1998, Gaussian, Inc.),
 the Gaussian(R) 94 system (copyright 1995, Gaussian, Inc.),
 the Gaussian 92(TM) system (copyright 1992, Gaussian, Inc.),
 the Gaussian 90(TM) system (copyright 1990, Gaussian, Inc.),
 the Gaussian 88(TM) system (copyright 1988, Gaussian, Inc.),
 the Gaussian 86(TM) system (copyright 1986, Carnegie Mellon
 University), and the Gaussian 82(TM) system (copyright 1983,
 Carnegie Mellon University). Gaussian is a federally registered
 trademark of Gaussian, Inc.
  
 This software contains proprietary and confidential information,
 including trade secrets, belonging to Gaussian, Inc.
  
 This software is provided under written license and may be
 used, copied, transmitted, or stored only in accord with that
 written license.
  
 The following legend is applicable only to US Government
 contracts under FAR:
  
                    RESTRICTED RIGHTS LEGEND
  
 Use, reproduction and disclosure by the US Government is
 subject to restrictions as set forth in subparagraphs (a)
 and (c) of the Commercial Computer Software - Restricted
 Rights clause in FAR 52.227-19.
  
 Gaussian, Inc.
 340 Quinnipiac St., Bldg. 40, Wallingford CT 06492
  
  
 ---------------------------------------------------------------
 Warning -- This program may not be used in any manner that
 competes with the business of Gaussian, Inc. or will provide
 assistance to any competitor of Gaussian, Inc.  The licensee
 of this program is prohibited from giving any competitor of
 Gaussian, Inc. access to this program.  By using this program,
 the user acknowledges that Gaussian, Inc. is engaged in the
 business of creating and licensing software in the field of
 computational chemistry and represents and warrants to the
 licensee that it is not a competitor of Gaussian, Inc. and that
 it will not use this program in any manner prohibited above.
 ---------------------------------------------------------------
  

 Cite this work as:
 Gaussian 16, Revision A.03,
 M. J. Frisch, G. W. Trucks, H. B. Schlegel, G. E. Scuseria, 
 M. A. Robb, J. R. Cheeseman, G. Scalmani, V. Barone, 
 G. A. Petersson, H. Nakatsuji, X. Li, M. Caricato, A. V. Marenich, 
 J. Bloino, B. G. Janesko, R. Gomperts, B. Mennucci, H. P. Hratchian, 
 J. V. Ortiz, A. F. Izmaylov, J. L. Sonnenberg, D. Williams-Young, 
 F. Ding, F. Lipparini, F. Egidi, J. Goings, B. Peng, A. Petrone, 
 T. Henderson, D. Ranasinghe, V. G. Zakrzewski, J. Gao, N. Rega, 
 G. Zheng, W. Liang, M. Hada, M. Ehara, K. Toyota, R. Fukuda, 
 J. Hasegawa, M. Ishida, T. Nakajima, Y. Honda, O. Kitao, H. Nakai, 
 T. Vreven, K. Throssell, J. A. Montgomery, Jr., J. E. Peralta, 
 F. Ogliaro, M. J. Bearpark, J. J. Heyd, E. N. Brothers, K. N. Kudin, 
 V. N. Staroverov, T. A. Keith, R. Kobayashi, J. Normand, 
 K. Raghavachari, A. P. Rendell, J. C. Burant, S. S. Iyengar, 
 J. Tomasi, M. Cossi, J. M. Millam, M. Klene, C. Adamo, R. Cammi, 
 J. W. Ochterski, R. L. Martin, K. Morokuma, O. Farkas, 
 J. B. Foresman, and D. J. Fox, Gaussian, Inc., Wallingford CT, 2016.
 
 ******************************************
 Gaussian 16:  ES64L-G16RevA.03 25-Dec-2016
                21-Apr-2022 
 ******************************************
 %Mem=192GB
 %NProcShared=48
 Will use up to   48 processors via shared memory.
 %Chk=DMAEMA-7.chk
 ---------------------------------------------------------------------
 #n B3LYP/6-311++G(d,p) Opt freq EmpiricalDispersion=GD3BJ IOp(6/33=2)
 ---------------------------------------------------------------------
 1/18=20,19=15,26=3,38=1/1,3;
 2/9=110,12=2,17=6,18=5,40=1/2;
 3/5=4,6=6,7=1111,11=2,25=1,30=1,71=1,74=-5,124=41/1,2,3;
 4//1;
 5/5=2,38=5/2;
 6/7=2,8=2,9=2,10=2,28=1,33=2/1;
 7//1,2,3,16;
 1/18=20,19=15,26=3/3(2);
 2/9=110/2;
 99//99;
 2/9=110/2;
 3/5=4,6=6,7=1111,11=2,25=1,30=1,71=1,74=-5,124=41/1,2,3;
 4/5=5,16=3,69=1/1;
 5/5=2,38=5/2;
 7//1,2,3,16;
 1/18=20,19=15,26=3/3(-5);
 2/9=110/2;
 6/7=2,8=2,9=2,10=2,19=2,28=1,33=2/1;
 99/9=1/99;
 --------------
 DMAEMA geo opt
 --------------
 Symbolic Z-matrix:
 Charge =  0 Multiplicity = 1
 H                    -1.6129    0.3547   -1.3403 
 C                    -0.5341    0.3029   -1.4575 
 H                    -0.1054    0.878    -2.2736 
 C                     0.2476   -0.4266   -0.6449 
 C                    -0.2987   -1.2251    0.4911 
 O                    -1.3943   -1.012     0.9848 
 O                     0.5591   -2.2054    0.8881 
 C                    -0.1173   -3.3578    1.4176 
 H                     0.138    -4.2363    0.8138 
 H                     0.2239   -3.5058    2.4474 
 C                    -1.6382   -3.1351    1.3902 
 H                    -2.1394   -3.9818    1.878 
 H                    -1.8513   -2.2609    2.0209 
 N                    -2.1863   -2.9004    0.0386 
 C                    -3.6363   -2.693     0.055 
 H                    -3.925    -1.8527    0.6961 
 H                    -4.0097   -2.5002   -0.957 
 H                    -4.1636   -3.5898    0.3942 
 C                    -1.5354   -1.7435   -0.5822 
 H                    -1.7111   -0.8195   -0.0189 
 H                    -0.4546   -1.9011   -0.6634 
 H                    -1.9066   -1.5968   -1.6035 
 C                     1.7362   -0.466    -0.8414 
 H                     1.9808   -0.8684   -1.8305 
 H                     2.1573    0.5421   -0.7612 
 H                     2.2496   -1.0888   -0.1033 
 

 GradGradGradGradGradGradGradGradGradGradGradGradGradGradGradGradGradGrad
 Berny optimization.
 Initialization pass.
                           ----------------------------
                           !    Initial Parameters    !
                           ! (Angstroms and Degrees)  !
 --------------------------                            --------------------------
 ! Name  Definition              Value          Derivative Info.                !
 --------------------------------------------------------------------------------
 ! R1    R(1,2)                  1.0864         estimate D2E/DX2                !
 ! R2    R(2,3)                  1.0865         estimate D2E/DX2                !
 ! R3    R(2,4)                  1.343          estimate D2E/DX2                !
 ! R4    R(4,5)                  1.4922         estimate D2E/DX2                !
 ! R5    R(4,23)                 1.502          estimate D2E/DX2                !
 ! R6    R(5,6)                  1.2204         estimate D2E/DX2                !
 ! R7    R(5,7)                  1.3618         estimate D2E/DX2                !
 ! R8    R(5,19)                 1.7176         estimate D2E/DX2                !
 ! R9    R(6,20)                 1.07           estimate D2E/DX2                !
 ! R10   R(7,8)                  1.4373         estimate D2E/DX2                !
 ! R11   R(8,9)                  1.0961         estimate D2E/DX2                !
 ! R12   R(8,10)                 1.0949         estimate D2E/DX2                !
 ! R13   R(8,11)                 1.5374         estimate D2E/DX2                !
 ! R14   R(11,12)                1.0982         estimate D2E/DX2                !
 ! R15   R(11,13)                1.0988         estimate D2E/DX2                !
 ! R16   R(11,14)                1.4773         estimate D2E/DX2                !
 ! R17   R(14,15)                1.4648         estimate D2E/DX2                !
 ! R18   R(14,19)                1.4654         estimate D2E/DX2                !
 ! R19   R(15,16)                1.0957         estimate D2E/DX2                !
 ! R20   R(15,17)                1.0958         estimate D2E/DX2                !
 ! R21   R(15,18)                1.0942         estimate D2E/DX2                !
 ! R22   R(19,20)                1.0963         estimate D2E/DX2                !
 ! R23   R(19,21)                1.0952         estimate D2E/DX2                !
 ! R24   R(19,22)                1.0965         estimate D2E/DX2                !
 ! R25   R(23,24)                1.0955         estimate D2E/DX2                !
 ! R26   R(23,25)                1.0955         estimate D2E/DX2                !
 ! R27   R(23,26)                1.0937         estimate D2E/DX2                !
 ! A1    A(1,2,3)              116.5897         estimate D2E/DX2                !
 ! A2    A(1,2,4)              122.5906         estimate D2E/DX2                !
 ! A3    A(3,2,4)              120.8196         estimate D2E/DX2                !
 ! A4    A(2,4,5)              122.5636         estimate D2E/DX2                !
 ! A5    A(2,4,23)             120.7943         estimate D2E/DX2                !
 ! A6    A(5,4,23)             116.6411         estimate D2E/DX2                !
 ! A7    A(4,5,6)              122.9012         estimate D2E/DX2                !
 ! A8    A(4,5,7)              112.1203         estimate D2E/DX2                !
 ! A9    A(4,5,19)              87.0989         estimate D2E/DX2                !
 ! A10   A(6,5,7)              124.9766         estimate D2E/DX2                !
 ! A11   A(6,5,19)              70.0694         estimate D2E/DX2                !
 ! A12   A(7,5,19)             114.7371         estimate D2E/DX2                !
 ! A13   A(5,6,20)              85.2815         estimate D2E/DX2                !
 ! A14   A(5,7,8)              112.8383         estimate D2E/DX2                !
 ! A15   A(7,8,9)              109.2714         estimate D2E/DX2                !
 ! A16   A(7,8,10)             107.9516         estimate D2E/DX2                !
 ! A17   A(7,8,11)             110.0505         estimate D2E/DX2                !
 ! A18   A(9,8,10)             109.705          estimate D2E/DX2                !
 ! A19   A(9,8,11)             109.6756         estimate D2E/DX2                !
 ! A20   A(10,8,11)            110.1594         estimate D2E/DX2                !
 ! A21   A(8,11,12)            109.3838         estimate D2E/DX2                !
 ! A22   A(8,11,13)            107.2699         estimate D2E/DX2                !
 ! A23   A(8,11,14)            113.9771         estimate D2E/DX2                !
 ! A24   A(12,11,13)           105.6596         estimate D2E/DX2                !
 ! A25   A(12,11,14)           111.073          estimate D2E/DX2                !
 ! A26   A(13,11,14)           109.0746         estimate D2E/DX2                !
 ! A27   A(11,14,15)           112.3035         estimate D2E/DX2                !
 ! A28   A(11,14,19)           110.3785         estimate D2E/DX2                !
 ! A29   A(15,14,19)           109.4288         estimate D2E/DX2                !
 ! A30   A(14,15,16)           112.0838         estimate D2E/DX2                !
 ! A31   A(14,15,17)           110.6022         estimate D2E/DX2                !
 ! A32   A(14,15,18)           111.3729         estimate D2E/DX2                !
 ! A33   A(16,15,17)           108.4007         estimate D2E/DX2                !
 ! A34   A(16,15,18)           108.675          estimate D2E/DX2                !
 ! A35   A(17,15,18)           105.4429         estimate D2E/DX2                !
 ! A36   A(5,19,14)            107.0594         estimate D2E/DX2                !
 ! A37   A(5,19,20)             62.6097         estimate D2E/DX2                !
 ! A38   A(5,19,21)             51.6281         estimate D2E/DX2                !
 ! A39   A(5,19,22)            141.7559         estimate D2E/DX2                !
 ! A40   A(14,19,20)           112.1182         estimate D2E/DX2                !
 ! A41   A(14,19,21)           110.8621         estimate D2E/DX2                !
 ! A42   A(14,19,22)           110.4766         estimate D2E/DX2                !
 ! A43   A(20,19,21)           108.5128         estimate D2E/DX2                !
 ! A44   A(20,19,22)           108.1524         estimate D2E/DX2                !
 ! A45   A(21,19,22)           106.5145         estimate D2E/DX2                !
 ! A46   A(6,20,19)            106.4333         estimate D2E/DX2                !
 ! A47   A(4,23,24)            110.4286         estimate D2E/DX2                !
 ! A48   A(4,23,25)            110.3193         estimate D2E/DX2                !
 ! A49   A(4,23,26)            113.07           estimate D2E/DX2                !
 ! A50   A(24,23,25)           108.5606         estimate D2E/DX2                !
 ! A51   A(24,23,26)           107.1778         estimate D2E/DX2                !
 ! A52   A(25,23,26)           107.1078         estimate D2E/DX2                !
 ! D1    D(1,2,4,5)             -0.1915         estimate D2E/DX2                !
 ! D2    D(1,2,4,23)          -179.8159         estimate D2E/DX2                !
 ! D3    D(3,2,4,5)            179.6924         estimate D2E/DX2                !
 ! D4    D(3,2,4,23)             0.068          estimate D2E/DX2                !
 ! D5    D(2,4,5,6)            -19.9931         estimate D2E/DX2                !
 ! D6    D(2,4,5,7)            159.5215         estimate D2E/DX2                !
 ! D7    D(2,4,5,19)            43.9471         estimate D2E/DX2                !
 ! D8    D(23,4,5,6)           159.6459         estimate D2E/DX2                !
 ! D9    D(23,4,5,7)           -20.8395         estimate D2E/DX2                !
 ! D10   D(23,4,5,19)         -136.4139         estimate D2E/DX2                !
 ! D11   D(2,4,23,24)          -60.5717         estimate D2E/DX2                !
 ! D12   D(2,4,23,25)           59.437          estimate D2E/DX2                !
 ! D13   D(2,4,23,26)          179.3493         estimate D2E/DX2                !
 ! D14   D(5,4,23,24)          119.7825         estimate D2E/DX2                !
 ! D15   D(5,4,23,25)         -120.2088         estimate D2E/DX2                !
 ! D16   D(5,4,23,26)           -0.2965         estimate D2E/DX2                !
 ! D17   D(4,5,6,20)            38.2246         estimate D2E/DX2                !
 ! D18   D(7,5,6,20)          -141.2266         estimate D2E/DX2                !
 ! D19   D(19,5,6,20)          -34.3953         estimate D2E/DX2                !
 ! D20   D(4,5,7,8)           -149.5022         estimate D2E/DX2                !
 ! D21   D(6,5,7,8)             30.0004         estimate D2E/DX2                !
 ! D22   D(19,5,7,8)           -52.199          estimate D2E/DX2                !
 ! D23   D(4,5,19,14)          165.0469         estimate D2E/DX2                !
 ! D24   D(4,5,19,20)          -88.4195         estimate D2E/DX2                !
 ! D25   D(4,5,19,21)           61.6221         estimate D2E/DX2                !
 ! D26   D(4,5,19,22)           -3.6148         estimate D2E/DX2                !
 ! D27   D(6,5,19,14)          -68.3037         estimate D2E/DX2                !
 ! D28   D(6,5,19,20)           38.2299         estimate D2E/DX2                !
 ! D29   D(6,5,19,21)         -171.7285         estimate D2E/DX2                !
 ! D30   D(6,5,19,22)          123.0346         estimate D2E/DX2                !
 ! D31   D(7,5,19,14)           51.9817         estimate D2E/DX2                !
 ! D32   D(7,5,19,20)          158.5153         estimate D2E/DX2                !
 ! D33   D(7,5,19,21)          -51.4431         estimate D2E/DX2                !
 ! D34   D(7,5,19,22)         -116.6801         estimate D2E/DX2                !
 ! D35   D(5,6,20,19)           60.1624         estimate D2E/DX2                !
 ! D36   D(5,7,8,9)            119.9989         estimate D2E/DX2                !
 ! D37   D(5,7,8,10)          -120.7428         estimate D2E/DX2                !
 ! D38   D(5,7,8,11)            -0.4853         estimate D2E/DX2                !
 ! D39   D(7,8,11,12)         -174.9949         estimate D2E/DX2                !
 ! D40   D(7,8,11,13)          -60.8508         estimate D2E/DX2                !
 ! D41   D(7,8,11,14)           60.0007         estimate D2E/DX2                !
 ! D42   D(9,8,11,12)           64.7649         estimate D2E/DX2                !
 ! D43   D(9,8,11,13)          178.909          estimate D2E/DX2                !
 ! D44   D(9,8,11,14)          -60.2394         estimate D2E/DX2                !
 ! D45   D(10,8,11,12)         -56.0806         estimate D2E/DX2                !
 ! D46   D(10,8,11,13)          58.0635         estimate D2E/DX2                !
 ! D47   D(10,8,11,14)         178.915          estimate D2E/DX2                !
 ! D48   D(8,11,14,15)         179.999          estimate D2E/DX2                !
 ! D49   D(8,11,14,19)         -57.595          estimate D2E/DX2                !
 ! D50   D(12,11,14,15)         55.8986         estimate D2E/DX2                !
 ! D51   D(12,11,14,19)        178.3046         estimate D2E/DX2                !
 ! D52   D(13,11,14,15)        -60.1614         estimate D2E/DX2                !
 ! D53   D(13,11,14,19)         62.2446         estimate D2E/DX2                !
 ! D54   D(11,14,15,16)         57.6747         estimate D2E/DX2                !
 ! D55   D(11,14,15,17)        178.769          estimate D2E/DX2                !
 ! D56   D(11,14,15,18)        -64.3207         estimate D2E/DX2                !
 ! D57   D(19,14,15,16)        -65.2675         estimate D2E/DX2                !
 ! D58   D(19,14,15,17)         55.8268         estimate D2E/DX2                !
 ! D59   D(19,14,15,18)        172.7371         estimate D2E/DX2                !
 ! D60   D(11,14,19,5)           4.7615         estimate D2E/DX2                !
 ! D61   D(11,14,19,20)        -61.9893         estimate D2E/DX2                !
 ! D62   D(11,14,19,21)         59.4555         estimate D2E/DX2                !
 ! D63   D(11,14,19,22)        177.2973         estimate D2E/DX2                !
 ! D64   D(15,14,19,5)         128.8396         estimate D2E/DX2                !
 ! D65   D(15,14,19,20)         62.0888         estimate D2E/DX2                !
 ! D66   D(15,14,19,21)       -176.4664         estimate D2E/DX2                !
 ! D67   D(15,14,19,22)        -58.6246         estimate D2E/DX2                !
 ! D68   D(5,19,20,6)          -43.7754         estimate D2E/DX2                !
 ! D69   D(14,19,20,6)          54.6235         estimate D2E/DX2                !
 ! D70   D(21,19,20,6)         -68.1607         estimate D2E/DX2                !
 ! D71   D(22,19,20,6)         176.6726         estimate D2E/DX2                !
 --------------------------------------------------------------------------------
 Trust Radius=3.00D-01 FncErr=1.00D-07 GrdErr=1.00D-06 EigMax=2.50D+02 EigMin=1.00D-04
 Number of steps in this run=    156 maximum allowed number of steps=    156.
 GradGradGradGradGradGradGradGradGradGradGradGradGradGradGradGradGradGrad

                          Input orientation:                          
 ---------------------------------------------------------------------
 Center     Atomic      Atomic             Coordinates (Angstroms)
 Number     Number       Type             X           Y           Z
 ---------------------------------------------------------------------
      1          1           0       -1.612900    0.354700   -1.340300
      2          6           0       -0.534100    0.302900   -1.457500
      3          1           0       -0.105400    0.878000   -2.273600
      4          6           0        0.247600   -0.426600   -0.644900
      5          6           0       -0.298700   -1.225100    0.491100
      6          8           0       -1.394300   -1.012000    0.984800
      7          8           0        0.559100   -2.205400    0.888100
      8          6           0       -0.117300   -3.357800    1.417600
      9          1           0        0.138000   -4.236300    0.813800
     10          1           0        0.223900   -3.505800    2.447400
     11          6           0       -1.638200   -3.135100    1.390200
     12          1           0       -2.139400   -3.981800    1.878000
     13          1           0       -1.851300   -2.260900    2.020900
     14          7           0       -2.186300   -2.900400    0.038600
     15          6           0       -3.636300   -2.693000    0.055000
     16          1           0       -3.925000   -1.852700    0.696100
     17          1           0       -4.009700   -2.500200   -0.957000
     18          1           0       -4.163600   -3.589800    0.394200
     19          6           0       -1.535400   -1.743500   -0.582200
     20          1           0       -1.711100   -0.819500   -0.018900
     21          1           0       -0.454600   -1.901100   -0.663400
     22          1           0       -1.906600   -1.596800   -1.603500
     23          6           0        1.736200   -0.466000   -0.841400
     24          1           0        1.980800   -0.868400   -1.830500
     25          1           0        2.157300    0.542100   -0.761200
     26          1           0        2.249600   -1.088800   -0.103300
 ---------------------------------------------------------------------
                    Distance matrix (angstroms):
                    1          2          3          4          5
     1  H    0.000000
     2  C    1.086383   0.000000
     3  H    1.848634   1.086528   0.000000
     4  C    2.134355   1.342961   2.116425   0.000000
     5  C    2.752620   2.487416   3.479075   1.492160   0.000000
     6  O    2.705872   2.904089   3.981273   2.386305   1.220447
     7  O    4.029573   3.603955   4.466012   2.368808   1.361770
     8  C    4.860606   4.673398   5.618461   3.602637   2.332320
     9  H    5.364986   5.120045   5.978908   4.080886   3.059766
    10  H    5.711739   5.507177   6.450890   4.363984   3.049887
    11  C    4.431137   4.598725   5.646050   3.877350   2.500148
    12  H    5.425854   5.662261   6.707503   4.970135   3.593197
    13  H    4.265661   4.517450   5.598535   3.857010   2.413242
    14  N    3.581317   3.902462   4.894152   3.537051   2.564063
    15  C    3.915289   4.570199   5.535492   4.550946   3.672123
    16  H    3.790164   4.558816   5.555644   4.608973   3.685914
    17  H    3.747269   4.493069   5.328154   4.745717   4.182630
    18  H    5.007359   5.635173   6.599044   5.526685   4.531958
    19  C    2.232300   2.440595   3.431909   2.217486   1.717597
    20  H    1.770448   2.171332   3.247068   2.093502   1.555469
    21  H    2.624593   2.344042   3.230802   1.633272   1.346904
    22  H    1.990951   2.348176   3.133367   2.632273   2.666618
    23  C    3.484095   2.474884   2.692401   1.502030   2.548059
    24  H    3.827656   2.799249   2.756534   2.145884   3.273100
    25  H    3.819016   2.790284   2.742261   2.144495   3.274628
    26  H    4.304970   3.394064   3.758261   2.177118   2.620252
                    6          7          8          9         10
     6  O    0.000000
     7  O    2.291141   0.000000
     8  C    2.705702   1.437328   0.000000
     9  H    3.573975   2.075428   1.096136   0.000000
    10  H    3.313127   2.057867   1.094902   1.791552   0.000000
    11  C    2.175176   2.438150   1.537362   2.167894   2.173133
    12  H    3.189466   3.378965   2.165694   2.526627   2.477091
    13  H    1.685854   2.663896   2.138672   3.052312   2.457261
    14  N    2.255795   2.956670   2.528165   2.790687   3.460909
    15  C    2.952432   4.305019   3.831710   4.147637   4.613607
    16  H    2.682269   4.502046   4.157459   4.712045   4.797204
    17  H    3.581291   4.936115   4.639502   4.832514   5.524902
    18  H    3.829215   4.946150   4.180157   4.370102   4.844878
    19  C    1.735076   2.600397   2.935332   3.311063   3.921647
    20  H    1.069968   2.810191   3.323657   3.973296   4.128325
    21  H    2.095256   1.878121   2.562481   2.826031   3.565459
    22  H    2.702543   3.557828   3.928073   4.121976   4.959143
    23  C    3.665127   2.720707   4.111089   4.416910   4.726906
    24  H    4.397481   3.346578   4.598836   4.661650   5.323815
    25  H    4.251777   3.580948   5.013003   5.421375   5.515310
    26  H    3.803665   2.255540   3.614376   3.899575   4.056035
                   11         12         13         14         15
    11  C    0.000000
    12  H    1.098204   0.000000
    13  H    1.098827   1.750691   0.000000
    14  N    1.477268   2.134249   2.109668   0.000000
    15  C    2.443484   2.687944   2.690297   1.464849   0.000000
    16  H    2.712154   3.019656   2.494384   2.133790   1.095656
    17  H    3.396536   3.705454   3.685627   2.115695   1.095784
    18  H    2.752529   2.540219   3.123917   2.124015   1.094236
    19  C    2.416088   3.380442   2.672756   1.465429   2.391935
    20  H    2.711620   3.712386   2.501614   2.135244   2.687352
    21  H    2.672253   3.691419   3.047244   2.119007   3.356549
    22  H    3.376484   4.226495   3.685154   2.115206   2.635173
    23  C    4.846721   5.897140   4.927939   4.699650   5.884456
    24  H    5.348645   6.357852   5.608683   4.998728   6.199684
    25  H    5.705799   6.774414   5.627234   5.599763   6.685645
    26  H    4.640353   5.617679   4.764811   4.793667   6.102650
                   16         17         18         19         20
    16  H    0.000000
    17  H    1.777405   0.000000
    18  H    1.779210   1.742600   0.000000
    19  C    2.712225   2.614427   3.357025   0.000000
    20  H    2.545600   2.998057   3.722898   1.096336   0.000000
    21  H    3.727500   3.617162   4.210333   1.095244   1.778772
    22  H    3.070437   2.378471   3.613434   1.096524   1.775774
    23  C    6.027937   6.096450   6.789144   3.521726   3.561649
    24  H    6.498540   6.269917   7.078768   3.832456   4.112713
    25  H    6.697250   6.879376   7.639458   4.346498   4.167671
    26  H    6.272820   6.472997   6.901568   3.870943   3.970742
                   21         22         23         24         25
    21  H    0.000000
    22  H    1.756329   0.000000
    23  C    2.625033   3.889665   0.000000
    24  H    2.891326   3.961562   1.095479   0.000000
    25  H    3.577822   4.669009   1.095456   1.778782   0.000000
    26  H    2.878583   4.447771   1.093733   1.761831   1.761019
                   26
    26  H    0.000000
 Stoichiometry    C8H15NO2
 Framework group  C1[X(C8H15NO2)]
 Deg. of freedom    72
 Full point group                 C1      NOp   1
 Largest Abelian subgroup         C1      NOp   1
 Largest concise Abelian subgroup C1      NOp   1
                         Standard orientation:                         
 ---------------------------------------------------------------------
 Center     Atomic      Atomic             Coordinates (Angstroms)
 Number     Number       Type             X           Y           Z
 ---------------------------------------------------------------------
      1          1           0       -1.126351   -2.400395    0.387782
      2          6           0       -1.937856   -1.747434    0.079027
      3          1           0       -2.861736   -2.230895   -0.226348
      4          6           0       -1.826065   -0.409163    0.070185
      5          6           0       -0.578738    0.295349    0.487773
      6          8           0        0.277156   -0.227895    1.182864
      7          8           0       -0.516604    1.563383   -0.004821
      8          6           0        0.830634    2.003868   -0.243221
      9          1           0        0.948740    2.248358   -1.305196
     10          1           0        1.005465    2.898541    0.363247
     11          6           0        1.823832    0.897070    0.146699
     12          1           0        2.849716    1.275682    0.045372
     13          1           0        1.685783    0.697638    1.218421
     14          7           0        1.645524   -0.361787   -0.605503
     15          6           0        2.609430   -1.389723   -0.205482
     16          1           0        2.550725   -1.615155    0.865123
     17          1           0        2.438519   -2.316828   -0.764059
     18          1           0        3.634283   -1.090102   -0.444767
     19          6           0        0.284248   -0.874282   -0.427298
     20          1           0        0.067079   -1.113490    0.620352
     21          1           0       -0.455451   -0.146900   -0.778468
     22          1           0        0.135317   -1.782702   -1.023081
     23          6           0       -2.976001    0.455720   -0.360765
     24          1           0       -3.254108    0.233748   -1.396844
     25          1           0       -3.846704    0.277830    0.279746
     26          1           0       -2.751261    1.524842   -0.308602
 ---------------------------------------------------------------------
 Rotational constants (GHZ):           1.9312646           1.0179691           0.7562253
 Standard basis: 6-311++G(d,p) (5D, 7F)
 There are   358 symmetry adapted cartesian basis functions of A   symmetry.
 There are   347 symmetry adapted basis functions of A   symmetry.
   347 basis functions,   531 primitive gaussians,   358 cartesian basis functions
    43 alpha electrons       43 beta electrons
       nuclear repulsion energy       726.5872267735 Hartrees.
 NAtoms=   26 NActive=   26 NUniq=   26 SFac= 1.00D+00 NAtFMM=   60 NAOKFM=F Big=F
 Integral buffers will be    131072 words long.
 Raffenetti 2 integral format.
 Two-electron integral symmetry is turned on.
 Nuclear repulsion after empirical dispersion term =      726.5396297922 Hartrees.
 One-electron integrals computed using PRISM.
 NBasis=   347 RedAO= T EigKep=  3.33D-06  NBF=   347
 NBsUse=   347 1.00D-06 EigRej= -1.00D+00 NBFU=   347
 ExpMin= 3.60D-02 ExpMax= 8.59D+03 ExpMxC= 1.30D+03 IAcc=3 IRadAn=         5 AccDes= 0.00D+00
 Harris functional with IExCor=  402 and IRadAn=       5 diagonalized for initial guess.
 HarFok:  IExCor=  402 AccDes= 0.00D+00 IRadAn=         5 IDoV= 1 UseB2=F ITyADJ=14
 ICtDFT=  3500011 ScaDFX=  1.000000  1.000000  1.000000  1.000000
 FoFCou: FMM=F IPFlag=           0 FMFlag=      100000 FMFlg1=           0
         NFxFlg=           0 DoJE=T BraDBF=F KetDBF=T FulRan=T
         wScrn=  0.000000 ICntrl=       500 IOpCl=  0 I1Cent=   200000004 NGrid=           0
         NMat0=    1 NMatS0=      1 NMatT0=    0 NMatD0=    1 NMtDS0=    0 NMtDT0=    0
 Petite list used in FoFCou.
 Requested convergence on RMS density matrix=1.00D-08 within 128 cycles.
 Requested convergence on MAX density matrix=1.00D-06.
 Requested convergence on             energy=1.00D-06.
 No special actions if energy rises.
 SCF Done:  E(RB3LYP) =  -518.777722666     A.U. after   19 cycles
            NFock= 19  Conv=0.57D-08     -V/T= 2.0000
 SCF density gives NOpUse=  1 NOpAll=  1.

 **********************************************************************

            Population analysis using the SCF density.

 **********************************************************************

 Orbital symmetries:
 BldTbl:  Degeneracy threshold= 1.00D-02
       Occupied  (A) (A) (A) (A) (A) (A) (A) (A) (A) (A) (A) (A)
                 (A) (A) (A) (A) (A) (A) (A) (A) (A) (A) (A) (A)
                 (A) (A) (A) (A) (A) (A) (A) (A) (A) (A) (A) (A)
                 (A) (A) (A) (A) (A) (A) (A)
       Virtual   (A) (A) (A) (A) (A) (A) (A) (A) (A) (A) (A) (A)
                 (A) (A) (A) (A) (A) (A) (A) (A) (A) (A) (A) (A)
                 (A) (A) (A) (A) (A) (A) (A) (A) (A) (A) (A) (A)
                 (A) (A) (A) (A) (A) (A) (A) (A) (A) (A) (A) (A)
                 (A) (A) (A) (A) (A) (A) (A) (A) (A) (A) (A) (A)
                 (A) (A) (A) (A) (A) (A) (A) (A) (A) (A) (A) (A)
                 (A) (A) (A) (A) (A) (A) (A) (A) (A) (A) (A) (A)
                 (A) (A) (A) (A) (A) (A) (A) (A) (A) (A) (A) (A)
                 (A) (A) (A) (A) (A) (A) (A) (A) (A) (A) (A) (A)
                 (A) (A) (A) (A) (A) (A) (A) (A) (A) (A) (A) (A)
                 (A) (A) (A) (A) (A) (A) (A) (A) (A) (A) (A) (A)
                 (A) (A) (A) (A) (A) (A) (A) (A) (A) (A) (A) (A)
                 (A) (A) (A) (A) (A) (A) (A) (A) (A) (A) (A) (A)
                 (A) (A) (A) (A) (A) (A) (A) (A) (A) (A) (A) (A)
                 (A) (A) (A) (A) (A) (A) (A) (A) (A) (A) (A) (A)
                 (A) (A) (A) (A) (A) (A) (A) (A) (A) (A) (A) (A)
                 (A) (A) (A) (A) (A) (A) (A) (A) (A) (A) (A) (A)
                 (A) (A) (A) (A) (A) (A) (A) (A) (A) (A) (A) (A)
                 (A) (A) (A) (A) (A) (A) (A) (A) (A) (A) (A) (A)
                 (A) (A) (A) (A) (A) (A) (A) (A) (A) (A) (A) (A)
                 (A) (A) (A) (A) (A) (A) (A) (A) (A) (A) (A) (A)
                 (A) (A) (A) (A) (A) (A) (A) (A) (A) (A) (A) (A)
                 (A) (A) (A) (A) (A) (A) (A) (A) (A) (A) (A) (A)
                 (A) (A) (A) (A) (A) (A) (A) (A) (A) (A) (A) (A)
                 (A) (A) (A) (A) (A) (A) (A) (A) (A) (A) (A) (A)
                 (A) (A) (A) (A)
 The electronic state is 1-A.
 Alpha  occ. eigenvalues --  -19.18576 -19.10027 -14.29971 -10.36009 -10.24254
 Alpha  occ. eigenvalues --  -10.20599 -10.18534 -10.18284 -10.17707 -10.17639
 Alpha  occ. eigenvalues --  -10.15789  -1.19378  -1.09249  -0.91381  -0.86814
 Alpha  occ. eigenvalues --   -0.77175  -0.75040  -0.71207  -0.69084  -0.66169
 Alpha  occ. eigenvalues --   -0.59404  -0.59293  -0.54893  -0.53174  -0.51419
 Alpha  occ. eigenvalues --   -0.49435  -0.47332  -0.46501  -0.44937  -0.43397
 Alpha  occ. eigenvalues --   -0.42662  -0.42576  -0.41640  -0.40735  -0.38351
 Alpha  occ. eigenvalues --   -0.36950  -0.36249  -0.34878  -0.32697  -0.28094
 Alpha  occ. eigenvalues --   -0.26052  -0.22502  -0.14800
 Alpha virt. eigenvalues --   -0.04763  -0.01173  -0.00406   0.00329   0.00968
 Alpha virt. eigenvalues --    0.01764   0.02048   0.02386   0.03753   0.03957
 Alpha virt. eigenvalues --    0.04190   0.04668   0.05028   0.06228   0.06890
 Alpha virt. eigenvalues --    0.07043   0.07700   0.07988   0.08927   0.09377
 Alpha virt. eigenvalues --    0.10011   0.10768   0.11034   0.11317   0.11521
 Alpha virt. eigenvalues --    0.11992   0.12064   0.12585   0.13367   0.13492
 Alpha virt. eigenvalues --    0.13738   0.13964   0.14320   0.14673   0.14981
 Alpha virt. eigenvalues --    0.15315   0.15552   0.16047   0.16412   0.16593
 Alpha virt. eigenvalues --    0.17535   0.17960   0.18124   0.18460   0.18903
 Alpha virt. eigenvalues --    0.19342   0.19908   0.20569   0.20912   0.21042
 Alpha virt. eigenvalues --    0.21752   0.22381   0.22746   0.24045   0.24277
 Alpha virt. eigenvalues --    0.24468   0.25168   0.26487   0.26830   0.27277
 Alpha virt. eigenvalues --    0.28460   0.28599   0.29044   0.29226   0.30592
 Alpha virt. eigenvalues --    0.30729   0.31073   0.31282   0.31823   0.32980
 Alpha virt. eigenvalues --    0.33228   0.33939   0.34410   0.35535   0.36403
 Alpha virt. eigenvalues --    0.36661   0.37173   0.37926   0.38902   0.40275
 Alpha virt. eigenvalues --    0.41141   0.41909   0.43761   0.44661   0.46071
 Alpha virt. eigenvalues --    0.46794   0.47476   0.49171   0.50238   0.51229
 Alpha virt. eigenvalues --    0.54164   0.54544   0.55766   0.56424   0.57506
 Alpha virt. eigenvalues --    0.58298   0.59474   0.59917   0.61332   0.62310
 Alpha virt. eigenvalues --    0.62759   0.64080   0.64886   0.65857   0.66813
 Alpha virt. eigenvalues --    0.67520   0.67892   0.68916   0.69883   0.70990
 Alpha virt. eigenvalues --    0.71826   0.72300   0.73442   0.73913   0.75267
 Alpha virt. eigenvalues --    0.75626   0.76166   0.78208   0.78769   0.79472
 Alpha virt. eigenvalues --    0.80755   0.82358   0.84559   0.86936   0.88954
 Alpha virt. eigenvalues --    0.91414   0.92312   0.93037   0.96420   0.98487
 Alpha virt. eigenvalues --    0.99022   1.02014   1.02274   1.03993   1.06363
 Alpha virt. eigenvalues --    1.07564   1.11276   1.12203   1.14550   1.16032
 Alpha virt. eigenvalues --    1.17841   1.19508   1.20401   1.22904   1.23195
 Alpha virt. eigenvalues --    1.29315   1.31436   1.32710   1.35387   1.36090
 Alpha virt. eigenvalues --    1.37511   1.38508   1.41184   1.44748   1.46555
 Alpha virt. eigenvalues --    1.46707   1.47602   1.50437   1.51063   1.52379
 Alpha virt. eigenvalues --    1.54518   1.55985   1.56225   1.58311   1.59251
 Alpha virt. eigenvalues --    1.60243   1.61972   1.62471   1.63722   1.65179
 Alpha virt. eigenvalues --    1.65773   1.67640   1.68103   1.68713   1.71156
 Alpha virt. eigenvalues --    1.72035   1.72390   1.74990   1.75536   1.77452
 Alpha virt. eigenvalues --    1.77685   1.78128   1.79392   1.81186   1.84313
 Alpha virt. eigenvalues --    1.86694   1.86992   1.88890   1.90104   1.93688
 Alpha virt. eigenvalues --    1.94451   1.97315   2.00414   2.00892   2.03917
 Alpha virt. eigenvalues --    2.05816   2.06382   2.08232   2.09738   2.11285
 Alpha virt. eigenvalues --    2.12480   2.14879   2.16590   2.17364   2.18272
 Alpha virt. eigenvalues --    2.21314   2.25112   2.26602   2.28447   2.29873
 Alpha virt. eigenvalues --    2.34020   2.35816   2.36590   2.39555   2.44366
 Alpha virt. eigenvalues --    2.45389   2.46594   2.49124   2.50685   2.51474
 Alpha virt. eigenvalues --    2.52361   2.53817   2.54186   2.55686   2.56726
 Alpha virt. eigenvalues --    2.58349   2.59609   2.62241   2.62881   2.63285
 Alpha virt. eigenvalues --    2.66046   2.67179   2.68504   2.70146   2.72509
 Alpha virt. eigenvalues --    2.73494   2.75384   2.77403   2.80412   2.82324
 Alpha virt. eigenvalues --    2.86517   2.88129   2.88651   2.91098   2.92059
 Alpha virt. eigenvalues --    2.93872   2.97074   2.99358   3.02861   3.03656
 Alpha virt. eigenvalues --    3.04840   3.09024   3.10595   3.10691   3.15781
 Alpha virt. eigenvalues --    3.22059   3.24919   3.29846   3.35983   3.43914
 Alpha virt. eigenvalues --    3.45583   3.51309   3.54266   3.56534   3.58948
 Alpha virt. eigenvalues --    3.64335   3.66461   3.75175   3.78568   3.79954
 Alpha virt. eigenvalues --    3.80527   3.80698   3.82546   3.82979   3.84923
 Alpha virt. eigenvalues --    3.88133   3.88972   3.93079   4.05467   4.10358
 Alpha virt. eigenvalues --    4.19329   4.23850   4.33090   4.35542   4.38489
 Alpha virt. eigenvalues --    4.89404   4.94784   5.11052   5.33098   5.43799
 Alpha virt. eigenvalues --    5.54997   5.72553   6.03925  23.78061  23.85014
 Alpha virt. eigenvalues --   23.86435  23.94977  23.96590  24.01202  24.11662
 Alpha virt. eigenvalues --   24.24066  35.63856  49.96881  50.12767
          Condensed to atoms (all electrons):
               1          2          3          4          5          6
     1  H    0.531108   0.599810  -0.016073  -0.222658   0.083711  -0.075548
     2  C    0.599810   9.967077   0.461448  -2.282467  -0.387272  -0.455550
     3  H   -0.016073   0.461448   0.533788  -0.194016   0.093818  -0.024841
     4  C   -0.222658  -2.282467  -0.194016  13.822164  -7.043328   1.461676
     5  C    0.083711  -0.387272   0.093818  -7.043328  17.139552  -1.772960
     6  O   -0.075548  -0.455550  -0.024841   1.461676  -1.772960  10.392183
     7  O   -0.004674   0.022385  -0.002290  -0.256663   0.490812  -0.104991
     8  C   -0.000301   0.017363   0.000327   0.324846  -0.857866  -0.023793
     9  H    0.000317  -0.010405   0.000919  -0.043364   0.096042  -0.045531
    10  H    0.000503   0.010683  -0.000771  -0.002521  -0.021333   0.029571
    11  C   -0.043793  -0.312991  -0.007391   0.101138  -0.361564   0.279198
    12  H   -0.001846  -0.010416  -0.000283   0.072844  -0.163494   0.053227
    13  H    0.007759   0.054607   0.002907  -0.280649   0.484285  -0.305060
    14  N    0.000469  -0.024339   0.003294  -0.024262   0.251169  -0.219286
    15  C    0.003256   0.095659   0.003264  -0.143808   0.185571  -0.037992
    16  H    0.003667   0.023906   0.000976  -0.069444   0.124604  -0.051558
    17  H   -0.004928  -0.018316  -0.000436   0.035133  -0.065118   0.017351
    18  H    0.001057   0.004159   0.000032  -0.005913  -0.004842  -0.004194
    19  C    0.073432   0.696722   0.035071  -0.581927  -1.558710  -1.377719
    20  H   -0.055534  -0.448943   0.009520  -0.198874   0.514762  -0.376886
    21  H    0.021200   0.080909   0.008182  -0.650304   0.872340  -0.101130
    22  H   -0.062266  -0.159800  -0.025875   0.624729  -0.784210   0.360228
    23  C   -0.026584  -1.410826  -0.031292   0.172396  -0.055857   0.133628
    24  H   -0.000767   0.045882   0.001867  -0.055272   0.007359  -0.002100
    25  H   -0.001465  -0.021156  -0.002397  -0.052097  -0.004147   0.000880
    26  H   -0.000012   0.018699   0.002746  -0.048498   0.015499   0.002770
               7          8          9         10         11         12
     1  H   -0.004674  -0.000301   0.000317   0.000503  -0.043793  -0.001846
     2  C    0.022385   0.017363  -0.010405   0.010683  -0.312991  -0.010416
     3  H   -0.002290   0.000327   0.000919  -0.000771  -0.007391  -0.000283
     4  C   -0.256663   0.324846  -0.043364  -0.002521   0.101138   0.072844
     5  C    0.490812  -0.857866   0.096042  -0.021333  -0.361564  -0.163494
     6  O   -0.104991  -0.023793  -0.045531   0.029571   0.279198   0.053227
     7  O    8.011411   0.092758  -0.045470  -0.065624   0.050997   0.011028
     8  C    0.092758   6.534930   0.441274   0.290655  -0.547005   0.056043
     9  H   -0.045470   0.441274   0.569200  -0.068716  -0.116141  -0.017215
    10  H   -0.065624   0.290655  -0.068716   0.602520   0.060203   0.002919
    11  C    0.050997  -0.547005  -0.116141   0.060203   7.210880   0.384611
    12  H    0.011028   0.056043  -0.017215   0.002919   0.384611   0.553515
    13  H    0.017475  -0.219349   0.031184  -0.029571   0.345465  -0.074836
    14  N    0.010483  -0.234111   0.043473  -0.005965   0.084198  -0.106743
    15  C   -0.000309  -0.012734   0.000290   0.001748  -0.230561  -0.015357
    16  H    0.001943  -0.002732   0.002975  -0.001135  -0.053866  -0.008903
    17  H    0.001203  -0.004392  -0.001540   0.000408   0.041219   0.008076
    18  H   -0.000996  -0.003715  -0.001579   0.000895   0.010027   0.004352
    19  C   -0.159532   0.621224  -0.025790  -0.009189  -0.871939   0.073580
    20  H    0.063320  -0.146650   0.010209  -0.009819   0.210701  -0.001752
    21  H   -0.015450  -0.169133   0.000698   0.005520   0.020780  -0.015493
    22  H   -0.003662   0.094973  -0.020936   0.008629   0.126686   0.018928
    23  C   -0.015932   0.037696   0.003313   0.003455   0.004851   0.000517
    24  H    0.001898   0.005089   0.000415  -0.000032  -0.000774  -0.000051
    25  H    0.004825  -0.001929  -0.000104  -0.000049   0.002855   0.000026
    26  H   -0.022967   0.004501   0.000804  -0.000815  -0.013614   0.000192
              13         14         15         16         17         18
     1  H    0.007759   0.000469   0.003256   0.003667  -0.004928   0.001057
     2  C    0.054607  -0.024339   0.095659   0.023906  -0.018316   0.004159
     3  H    0.002907   0.003294   0.003264   0.000976  -0.000436   0.000032
     4  C   -0.280649  -0.024262  -0.143808  -0.069444   0.035133  -0.005913
     5  C    0.484285   0.251169   0.185571   0.124604  -0.065118  -0.004842
     6  O   -0.305060  -0.219286  -0.037992  -0.051558   0.017351  -0.004194
     7  O    0.017475   0.010483  -0.000309   0.001943   0.001203  -0.000996
     8  C   -0.219349  -0.234111  -0.012734  -0.002732  -0.004392  -0.003715
     9  H    0.031184   0.043473   0.000290   0.002975  -0.001540  -0.001579
    10  H   -0.029571  -0.005965   0.001748  -0.001135   0.000408   0.000895
    11  C    0.345465   0.084198  -0.230561  -0.053866   0.041219   0.010027
    12  H   -0.074836  -0.106743  -0.015357  -0.008903   0.008076   0.004352
    13  H    0.749836   0.015129   0.005203   0.049169  -0.008863  -0.000669
    14  N    0.015129   7.128875   0.375641  -0.060160  -0.077317  -0.057010
    15  C    0.005203   0.375641   5.244127   0.438776   0.377475   0.389002
    16  H    0.049169  -0.060160   0.438776   0.640363  -0.053597  -0.043580
    17  H   -0.008863  -0.077317   0.377475  -0.053597   0.567841  -0.025689
    18  H   -0.000669  -0.057010   0.389002  -0.043580  -0.025689   0.563331
    19  C   -0.021470  -0.120736  -0.346312  -0.058619   0.042397   0.041330
    20  H    0.097876  -0.028332  -0.019585   0.024183   0.014678  -0.009138
    21  H    0.036860   0.086656   0.045120   0.013931  -0.013231   0.001372
    22  H   -0.071629  -0.175467  -0.057872  -0.029303   0.030132   0.001239
    23  C   -0.027276   0.018925  -0.019667  -0.003159   0.001947  -0.000722
    24  H   -0.000180  -0.003202  -0.000977   0.000086   0.000023  -0.000055
    25  H    0.000395  -0.001236  -0.000772  -0.000201   0.000105   0.000009
    26  H   -0.001720   0.001811   0.001107   0.000108  -0.000177   0.000005
              19         20         21         22         23         24
     1  H    0.073432  -0.055534   0.021200  -0.062266  -0.026584  -0.000767
     2  C    0.696722  -0.448943   0.080909  -0.159800  -1.410826   0.045882
     3  H    0.035071   0.009520   0.008182  -0.025875  -0.031292   0.001867
     4  C   -0.581927  -0.198874  -0.650304   0.624729   0.172396  -0.055272
     5  C   -1.558710   0.514762   0.872340  -0.784210  -0.055857   0.007359
     6  O   -1.377719  -0.376886  -0.101130   0.360228   0.133628  -0.002100
     7  O   -0.159532   0.063320  -0.015450  -0.003662  -0.015932   0.001898
     8  C    0.621224  -0.146650  -0.169133   0.094973   0.037696   0.005089
     9  H   -0.025790   0.010209   0.000698  -0.020936   0.003313   0.000415
    10  H   -0.009189  -0.009819   0.005520   0.008629   0.003455  -0.000032
    11  C   -0.871939   0.210701   0.020780   0.126686   0.004851  -0.000774
    12  H    0.073580  -0.001752  -0.015493   0.018928   0.000517  -0.000051
    13  H   -0.021470   0.097876   0.036860  -0.071629  -0.027276  -0.000180
    14  N   -0.120736  -0.028332   0.086656  -0.175467   0.018925  -0.003202
    15  C   -0.346312  -0.019585   0.045120  -0.057872  -0.019667  -0.000977
    16  H   -0.058619   0.024183   0.013931  -0.029303  -0.003159   0.000086
    17  H    0.042397   0.014678  -0.013231   0.030132   0.001947   0.000023
    18  H    0.041330  -0.009138   0.001372   0.001239  -0.000722  -0.000055
    19  C   10.201472   0.233935  -0.064592   0.232240  -0.111078   0.010156
    20  H    0.233935   1.133051  -0.018740  -0.151103   0.008598   0.000061
    21  H   -0.064592  -0.018740   0.687200  -0.082035  -0.036400  -0.014566
    22  H    0.232240  -0.151103  -0.082035   0.917279   0.049023   0.001532
    23  C   -0.111078   0.008598  -0.036400   0.049023   6.775020   0.355102
    24  H    0.010156   0.000061  -0.014566   0.001532   0.355102   0.548635
    25  H   -0.016622   0.007073  -0.000761  -0.000280   0.445600  -0.039257
    26  H    0.005824  -0.011162  -0.000076   0.002265   0.387699  -0.020641
              25         26
     1  H   -0.001465  -0.000012
     2  C   -0.021156   0.018699
     3  H   -0.002397   0.002746
     4  C   -0.052097  -0.048498
     5  C   -0.004147   0.015499
     6  O    0.000880   0.002770
     7  O    0.004825  -0.022967
     8  C   -0.001929   0.004501
     9  H   -0.000104   0.000804
    10  H   -0.000049  -0.000815
    11  C    0.002855  -0.013614
    12  H    0.000026   0.000192
    13  H    0.000395  -0.001720
    14  N   -0.001236   0.001811
    15  C   -0.000772   0.001107
    16  H   -0.000201   0.000108
    17  H    0.000105  -0.000177
    18  H    0.000009   0.000005
    19  C   -0.016622   0.005824
    20  H    0.007073  -0.011162
    21  H   -0.000761  -0.000076
    22  H   -0.000280   0.002265
    23  C    0.445600   0.387699
    24  H   -0.039257  -0.020641
    25  H    0.551331  -0.030560
    26  H   -0.030560   0.506897
 Mulliken charges:
               1
     1  H    0.190161
     2  C   -0.556828
     3  H    0.147505
     4  C    1.541140
     5  C   -1.278822
     6  O    0.248427
     7  O   -0.081979
     8  C   -0.297970
     9  H    0.195677
    10  H    0.197833
    11  C   -0.374169
    12  H    0.176533
    13  H    0.143122
    14  N    0.118043
    15  C   -0.280293
    16  H    0.111568
    17  H    0.135617
    18  H    0.141292
    19  C   -0.943149
    20  H    0.148551
    21  H    0.301142
    22  H    0.156556
    23  C   -0.658977
    24  H    0.159772
    25  H    0.159935
    26  H    0.199313
 Sum of Mulliken charges =  -0.00000
 Mulliken charges with hydrogens summed into heavy atoms:
               1
     2  C   -0.219162
     4  C    1.541140
     5  C   -1.278822
     6  O    0.396978
     7  O   -0.081979
     8  C    0.095541
    11  C   -0.054515
    14  N    0.118043
    15  C    0.108185
    19  C   -0.485451
    23  C   -0.139957
 DipInt: DoE/N= T F RetVal/Mat= T F Init=T NMatP=  1 IDeriv=0 Min/MaxMlt=  0  4
 Entering OneElI...
 OneElI was handed 25769474560 working-precision words.
 Multipole integrals L=0 to 4 MinM= 0 MaxM= 0.
 Requested accuracy = 0.1000D-12
 ShPair: Thresh= 1.00D-13 NBox=     0 BxSize= 0.00D+00 RnKept= 1.44D+01
         NSMCal=                10011 NSMKep=                9540
 PrmmSu-InSpLW:  IPartL=    0 NPrtUS=    1 NPrtUL=    1 DoSpLW=F IThBeg=    0 IThEnd=    0 NThAct=    1.
 PrsmSu:  NPrtUS=   1 ThrOK=F IAlg=1 NPAlg=1 LenDen=           0 ISkipM=0 DoSpLW=F IThBeg=    0 IThEnd=    0.
 Prism:   IPart=     0 DynPar=F LinDyn=F Incr=          95.
 PRISM was handed 25768892120 working-precision words and  9540 shell-pairs
 IPart=  0 NShTot=        9540 NBatch=          97 AvBLen=        98.4
 PrsmSu-ThDecC:  IPartSL=    0    0 NPrtUSL=    1    1 IThBeg=    0 IThEnd=    0 CPU=   -1 GPU=   -1 NThAct=    1.
 PrSmSu:  NxtVal=             96.
 Electronic moments (au):
        -86.00000000         -0.32818513          0.31892469         -0.11083203
       -998.26685952       -510.75807405       -153.47094778          1.58481534
          1.40016201         -0.88160925        610.37629327       -139.26611113
        -46.52537279       -166.12702348        554.47823385        330.15405569
        -49.34289600         30.74572832        108.01515836       -100.57564396
     -26588.94292451      -7399.06877506       -981.07766991       2267.02522444
       -576.03190523      -1010.48987998         75.63087444       -122.41390073
         29.85937587      -5516.04762345      -1479.79932255       -731.74628490
       -119.80318081        230.51664407         73.69750286
 Electronic spatial extent (au):  <R**2>=           1662.4959
 DipInt: DoE/N= F T RetVal/Mat= T F Init=T NMatP=  1 IDeriv=0 Min/MaxMlt=  0  4
 Nuclear    moments (au):
         86.00000000          0.00000000         -0.00000000         -0.00000000
        949.93113296        462.26130962         96.71974059          0.00000000
          0.00000000         -0.00000000       -613.57535338        153.33321519
         49.09399362        176.77304148       -553.71002173       -328.91431818
         44.02201590        -20.40520200       -106.22858309         98.71797480
      23045.64743428       5635.87424606        367.27610197      -2267.91183370
        584.82272457       1046.71313384        -87.90952706        145.17238602
        -59.30404163       4625.82058388        740.71531676        321.60413262
        134.92889165       -235.90560085        -84.75207351
 Total      moments (au):
          0.00000000         -0.32818513          0.31892469         -0.11083203
        -48.33572656        -48.49676444        -56.75120719          1.58481534
          1.40016201         -0.88160925         -3.19906011         14.06710406
          2.56862083         10.64601800          0.76821212          1.23973750
         -5.32088010         10.34052632          1.78657527         -1.85766916
      -3543.29549023      -1763.19452899       -613.80156794         -0.88660926
          8.79081934         36.22325386        -12.27865261         22.75848528
        -29.44466576       -890.22703957       -739.08400579       -410.14215228
         15.12571084         -5.38895678        -11.05457065
 Traceless Quadrup. (au):
          2.85883950          2.69780162         -5.55664112          1.58481534
          1.40016201         -0.88160925
 Charge=              0.0000 electrons
 Dipole moment (field-independent basis, Debye):
    X=             -0.8342    Y=              0.8106    Z=             -0.2817  Tot=              1.1968
 Quadrupole moment (field-independent basis, Debye-Ang):
   XX=            -65.0132   YY=            -65.2298   ZZ=            -76.3323
   XY=              2.1316   XZ=              1.8833   YZ=             -1.1858
 Traceless Quadrupole moment (field-independent basis, Debye-Ang):
   XX=              3.8452   YY=              3.6286   ZZ=             -7.4739
   XY=              2.1316   XZ=              1.8833   YZ=             -1.1858
 Octapole moment (field-independent basis, Debye-Ang**2):
  XXX=             -2.2770  YYY=             10.0124  ZZZ=              1.8282  XYY=              7.5774
  XXY=              0.5468  XXZ=              0.8824  XZZ=             -3.7872  YZZ=              7.3600
  YYZ=              1.2716  XYZ=             -1.3222
 Hexadecapole moment (field-independent basis, Debye-Ang**3):
 XXXX=          -1334.5750 YYYY=           -664.1036 ZZZZ=           -231.1871 XXXY=             -0.3339
 XXXZ=              3.3110 YYYX=             13.6434 YYYZ=             -4.6247 ZZZX=              8.5719
 ZZZY=            -11.0903 XXYY=           -335.3022 XXZZ=           -278.3745 YYZZ=           -154.4792
 XXYZ=              5.6971 YYXZ=             -2.0297 ZZXY=             -4.1637
 N-N= 7.265396297922D+02 E-N=-2.663839650002D+03  KE= 5.187779262457D+02
 Entering OneElI...
 OneElI was handed 25769545553 working-precision words.
 Calculate electrostatic properties
    NBasis =   347  MinDer = 0  MaxDer = 0
    NGrid  =    26  NMatD  =   1
 Requested accuracy = 0.1000D-12
 ShPair: Thresh= 1.00D-13 NBox=     0 BxSize= 0.00D+00 RnKept= 1.44D+01
         NSMCal=                10011 NSMKep=                9061
 PrmmSu-InSpLW:  IPartL=    0 NPrtUS=   48 NPrtUL=    1 DoSpLW=F IThBeg=    0 IThEnd=   47 NThAct=   48.
 PrsmSu:  NPrtUS=  48 ThrOK=T IAlg=1 NPAlg=1 LenDen=           0 ISkipM=0 DoSpLW=F IThBeg=    0 IThEnd=   47.
 Prism:   IPart=     0 DynPar=F LinDyn=F Incr=          49.
 PRISM was handed   536682810 working-precision words and  9061 shell-pairs
 PRISM was handed   536682810 working-precision words and  9061 shell-pairs
 PRISM was handed   536682810 working-precision words and  9061 shell-pairs
 PRISM was handed   536682810 working-precision words and  9061 shell-pairs
 PRISM was handed   536682810 working-precision words and  9061 shell-pairs
 PRISM was handed   536682810 working-precision words and  9061 shell-pairs
 PRISM was handed   536682810 working-precision words and  9061 shell-pairs
 PRISM was handed   536682810 working-precision words and  9061 shell-pairs
 PRISM was handed   536682810 working-precision words and  9061 shell-pairs
 PRISM was handed   536682810 working-precision words and  9061 shell-pairs
 PRISM was handed   536682810 working-precision words and  9061 shell-pairs
 PRISM was handed   536682810 working-precision words and  9061 shell-pairs
 PRISM was handed   536682810 working-precision words and  9061 shell-pairs
 PRISM was handed   536682810 working-precision words and  9061 shell-pairs
 PRISM was handed   536682810 working-precision words and  9061 shell-pairs
 PRISM was handed   536682810 working-precision words and  9061 shell-pairs
 PRISM was handed   536682810 working-precision words and  9061 shell-pairs
 PRISM was handed   536682810 working-precision words and  9061 shell-pairs
 PRISM was handed   536682810 working-precision words and  9061 shell-pairs
 PRISM was handed   536682810 working-precision words and  9061 shell-pairs
 PRISM was handed   536682810 working-precision words and  9061 shell-pairs
 PRISM was handed   536682810 working-precision words and  9061 shell-pairs
 PRISM was handed   536682810 working-precision words and  9061 shell-pairs
 PRISM was handed   536682810 working-precision words and  9061 shell-pairs
 PRISM was handed   536682810 working-precision words and  9061 shell-pairs
 PRISM was handed   536682810 working-precision words and  9061 shell-pairs
 PRISM was handed   536682810 working-precision words and  9061 shell-pairs
 PRISM was handed   536682810 working-precision words and  9061 shell-pairs
 PRISM was handed   536682810 working-precision words and  9061 shell-pairs
 PRISM was handed   536682810 working-precision words and  9061 shell-pairs
 PRISM was handed   536682810 working-precision words and  9061 shell-pairs
 PRISM was handed   536682810 working-precision words and  9061 shell-pairs
 PRISM was handed   536682810 working-precision words and  9061 shell-pairs
 PRISM was handed   536682810 working-precision words and  9061 shell-pairs
 PRISM was handed   536682810 working-precision words and  9061 shell-pairs
 PRISM was handed   536682810 working-precision words and  9061 shell-pairs
 PRISM was handed   536682810 working-precision words and  9061 shell-pairs
 PRISM was handed   536682810 working-precision words and  9061 shell-pairs
 PRISM was handed   536682810 working-precision words and  9061 shell-pairs
 PRISM was handed   536682810 working-precision words and  9061 shell-pairs
 PRISM was handed   536682810 working-precision words and  9061 shell-pairs
 PRISM was handed   536682810 working-precision words and  9061 shell-pairs
 PRISM was handed   536682810 working-precision words and  9061 shell-pairs
 PRISM was handed   536682810 working-precision words and  9061 shell-pairs
 PRISM was handed   536682810 working-precision words and  9061 shell-pairs
 PRISM was handed   536682810 working-precision words and  9061 shell-pairs
 PRISM was handed   536682810 working-precision words and  9061 shell-pairs
 PRISM was handed   536682810 working-precision words and  9061 shell-pairs
 IPart= 45 NShTot=        4472 NBatch=         172 AvBLen=        26.0
 PrsmSu-ThDecC:  IPartSL=   45    0 NPrtUSL=   48    1 IThBeg=    0 IThEnd=   47 CPU=   -1 GPU=   -1 NThAct=   48.
 IPart= 40 NShTot=        4498 NBatch=         173 AvBLen=        26.0
 PrsmSu-ThDecC:  IPartSL=   40    0 NPrtUSL=   48    1 IThBeg=    0 IThEnd=   47 CPU=   -1 GPU=   -1 NThAct=   47.
 IPart= 29 NShTot=        4706 NBatch=         181 AvBLen=        26.0
 PrsmSu-ThDecC:  IPartSL=   29    0 NPrtUSL=   48    1 IThBeg=    0 IThEnd=   47 CPU=   -1 GPU=   -1 NThAct=   46.
 IPart= 34 NShTot=        4550 NBatch=         175 AvBLen=        26.0
 PrsmSu-ThDecC:  IPartSL=   34    0 NPrtUSL=   48    1 IThBeg=    0 IThEnd=   47 CPU=   -1 GPU=   -1 NThAct=   45.
 IPart= 13 NShTot=        5148 NBatch=         198 AvBLen=        26.0
 PrsmSu-ThDecC:  IPartSL=   13    0 NPrtUSL=   48    1 IThBeg=    0 IThEnd=   47 CPU=   -1 GPU=   -1 NThAct=   44.
 IPart=  5 NShTot=        5460 NBatch=         210 AvBLen=        26.0
 IPart= 24 NShTot=        4810 NBatch=         185 AvBLen=        26.0
 PrsmSu-ThDecC:  IPartSL=    5    0 NPrtUSL=   48    1 IThBeg=    0 IThEnd=   47 CPU=   -1 GPU=   -1 NThAct=   43.
 PrsmSu-ThDecC:  IPartSL=   24    0 NPrtUSL=   48    1 IThBeg=    0 IThEnd=   47 CPU=   -1 GPU=   -1 NThAct=   42.
 IPart=  0 NShTot=        5876 NBatch=         226 AvBLen=        26.0
 PrsmSu-ThDecC:  IPartSL=    0    0 NPrtUSL=   48    1 IThBeg=    0 IThEnd=   47 CPU=   -1 GPU=   -1 NThAct=   41.
 IPart= 38 NShTot=        4524 NBatch=         174 AvBLen=        26.0
 PrsmSu-ThDecC:  IPartSL=   38    0 NPrtUSL=   48    1 IThBeg=    0 IThEnd=   47 CPU=   -1 GPU=   -1 NThAct=   40.
 IPart= 26 NShTot=        4810 NBatch=         185 AvBLen=        26.0
 PrsmSu-ThDecC:  IPartSL=   26    0 NPrtUSL=   48    1 IThBeg=    0 IThEnd=   47 CPU=   -1 GPU=   -1 NThAct=   39.
 IPart= 28 NShTot=        4706 NBatch=         181 AvBLen=        26.0
 IPart=  4 NShTot=        5486 NBatch=         211 AvBLen=        26.0
 PrsmSu-ThDecC:  IPartSL=   28    0 NPrtUSL=   48    1 IThBeg=    0 IThEnd=   47 CPU=   -1 GPU=   -1 NThAct=   38.
 PrsmSu-ThDecC:  IPartSL=    4    0 NPrtUSL=   48    1 IThBeg=    0 IThEnd=   47 CPU=   -1 GPU=   -1 NThAct=   37.
 IPart=  3 NShTot=        5564 NBatch=         214 AvBLen=        26.0
 PrsmSu-ThDecC:  IPartSL=    3    0 NPrtUSL=   48    1 IThBeg=    0 IThEnd=   47 CPU=   -1 GPU=   -1 NThAct=   36.
 IPart= 17 NShTot=        4966 NBatch=         191 AvBLen=        26.0
 PrsmSu-ThDecC:  IPartSL=   17    0 NPrtUSL=   48    1 IThBeg=    0 IThEnd=   47 CPU=   -1 GPU=   -1 NThAct=   35.
 IPart=  6 NShTot=        5408 NBatch=         208 AvBLen=        26.0
 PrsmSu-ThDecC:  IPartSL=    6    0 NPrtUSL=   48    1 IThBeg=    0 IThEnd=   47 CPU=   -1 GPU=   -1 NThAct=   34.
 IPart= 11 NShTot=        5174 NBatch=         199 AvBLen=        26.0
 PrsmSu-ThDecC:  IPartSL=   11    0 NPrtUSL=   48    1 IThBeg=    0 IThEnd=   47 CPU=   -1 GPU=   -1 NThAct=   33.
 IPart= 42 NShTot=        4472 NBatch=         172 AvBLen=        26.0
 PrsmSu-ThDecC:  IPartSL=   42    0 NPrtUSL=   48    1 IThBeg=    0 IThEnd=   47 CPU=   -1 GPU=   -1 NThAct=   32.
 IPart= 10 NShTot=        5278 NBatch=         203 AvBLen=        26.0
 PrsmSu-ThDecC:  IPartSL=   10    0 NPrtUSL=   48    1 IThBeg=    0 IThEnd=   47 CPU=   -1 GPU=   -1 NThAct=   31.
 IPart= 22 NShTot=        4888 NBatch=         188 AvBLen=        26.0
 IPart= 21 NShTot=        4888 NBatch=         188 AvBLen=        26.0
 PrsmSu-ThDecC:  IPartSL=   22    0 NPrtUSL=   48    1 IThBeg=    0 IThEnd=   47 CPU=   -1 GPU=   -1 NThAct=   30.
 PrsmSu-ThDecC:  IPartSL=   21    0 NPrtUSL=   48    1 IThBeg=    0 IThEnd=   47 CPU=   -1 GPU=   -1 NThAct=   29.
 IPart=  9 NShTot=        5304 NBatch=         204 AvBLen=        26.0
 PrsmSu-ThDecC:  IPartSL=    9    0 NPrtUSL=   48    1 IThBeg=    0 IThEnd=   47 CPU=   -1 GPU=   -1 NThAct=   28.
 IPart= 36 NShTot=        4550 NBatch=         175 AvBLen=        26.0
 PrsmSu-ThDecC:  IPartSL=   36    0 NPrtUSL=   48    1 IThBeg=    0 IThEnd=   47 CPU=   -1 GPU=   -1 NThAct=   27.
 IPart= 30 NShTot=        4654 NBatch=         179 AvBLen=        26.0
 PrsmSu-ThDecC:  IPartSL=   30    0 NPrtUSL=   48    1 IThBeg=    0 IThEnd=   47 CPU=   -1 GPU=   -1 NThAct=   26.
 IPart= 33 NShTot=        4550 NBatch=         175 AvBLen=        26.0
 PrsmSu-ThDecC:  IPartSL=   33    0 NPrtUSL=   48    1 IThBeg=    0 IThEnd=   47 CPU=   -1 GPU=   -1 NThAct=   25.
 IPart= 37 NShTot=        4524 NBatch=         174 AvBLen=        26.0
 PrsmSu-ThDecC:  IPartSL=   37    0 NPrtUSL=   48    1 IThBeg=    0 IThEnd=   47 CPU=   -1 GPU=   -1 NThAct=   24.
 IPart= 16 NShTot=        5018 NBatch=         193 AvBLen=        26.0
 PrsmSu-ThDecC:  IPartSL=   16    0 NPrtUSL=   48    1 IThBeg=    0 IThEnd=   47 CPU=   -1 GPU=   -1 NThAct=   23.
 IPart= 14 NShTot=        5096 NBatch=         196 AvBLen=        26.0
 PrsmSu-ThDecC:  IPartSL=   14    0 NPrtUSL=   48    1 IThBeg=    0 IThEnd=   47 CPU=   -1 GPU=   -1 NThAct=   22.
 IPart=  8 NShTot=        5330 NBatch=         205 AvBLen=        26.0
 PrsmSu-ThDecC:  IPartSL=    8    0 NPrtUSL=   48    1 IThBeg=    0 IThEnd=   47 CPU=   -1 GPU=   -1 NThAct=   21.
 IPart= 25 NShTot=        4810 NBatch=         185 AvBLen=        26.0
 PrsmSu-ThDecC:  IPartSL=   25    0 NPrtUSL=   48    1 IThBeg=    0 IThEnd=   47 CPU=   -1 GPU=   -1 NThAct=   20.
 IPart= 31 NShTot=        4628 NBatch=         178 AvBLen=        26.0
 PrsmSu-ThDecC:  IPartSL=   31    0 NPrtUSL=   48    1 IThBeg=    0 IThEnd=   47 CPU=   -1 GPU=   -1 NThAct=   19.
 IPart= 12 NShTot=        5174 NBatch=         199 AvBLen=        26.0
 PrsmSu-ThDecC:  IPartSL=   12    0 NPrtUSL=   48    1 IThBeg=    0 IThEnd=   47 CPU=   -1 GPU=   -1 NThAct=   18.
 IPart= 39 NShTot=        4498 NBatch=         173 AvBLen=        26.0
 PrsmSu-ThDecC:  IPartSL=   39    0 NPrtUSL=   48    1 IThBeg=    0 IThEnd=   47 CPU=   -1 GPU=   -1 NThAct=   17.
 IPart= 44 NShTot=        4472 NBatch=         172 AvBLen=        26.0
 PrsmSu-ThDecC:  IPartSL=   44    0 NPrtUSL=   48    1 IThBeg=    0 IThEnd=   47 CPU=   -1 GPU=   -1 NThAct=   16.
 IPart= 43 NShTot=        4472 NBatch=         172 AvBLen=        26.0
 PrsmSu-ThDecC:  IPartSL=   43    0 NPrtUSL=   48    1 IThBeg=    0 IThEnd=   47 CPU=   -1 GPU=   -1 NThAct=   15.
 IPart= 41 NShTot=        4472 NBatch=         172 AvBLen=        26.0
 PrsmSu-ThDecC:  IPartSL=   41    0 NPrtUSL=   48    1 IThBeg=    0 IThEnd=   47 CPU=   -1 GPU=   -1 NThAct=   14.
 IPart= 23 NShTot=        4810 NBatch=         185 AvBLen=        26.0
 PrsmSu-ThDecC:  IPartSL=   23    0 NPrtUSL=   48    1 IThBeg=    0 IThEnd=   47 CPU=   -1 GPU=   -1 NThAct=   13.
 IPart= 47 NShTot=        4472 NBatch=         172 AvBLen=        26.0
 PrsmSu-ThDecC:  IPartSL=   47    0 NPrtUSL=   48    1 IThBeg=    0 IThEnd=   47 CPU=   -1 GPU=   -1 NThAct=   12.
 IPart= 46 NShTot=        4472 NBatch=         172 AvBLen=        26.0
 PrsmSu-ThDecC:  IPartSL=   46    0 NPrtUSL=   48    1 IThBeg=    0 IThEnd=   47 CPU=   -1 GPU=   -1 NThAct=   11.
 IPart= 35 NShTot=        4550 NBatch=         175 AvBLen=        26.0
 PrsmSu-ThDecC:  IPartSL=   35    0 NPrtUSL=   48    1 IThBeg=    0 IThEnd=   47 CPU=   -1 GPU=   -1 NThAct=   10.
 IPart= 32 NShTot=        4628 NBatch=         178 AvBLen=        26.0
 PrsmSu-ThDecC:  IPartSL=   32    0 NPrtUSL=   48    1 IThBeg=    0 IThEnd=   47 CPU=   -1 GPU=   -1 NThAct=    9.
 IPart= 18 NShTot=        4966 NBatch=         191 AvBLen=        26.0
 PrsmSu-ThDecC:  IPartSL=   18    0 NPrtUSL=   48    1 IThBeg=    0 IThEnd=   47 CPU=   -1 GPU=   -1 NThAct=    8.
 IPart= 20 NShTot=        4888 NBatch=         188 AvBLen=        26.0
 PrsmSu-ThDecC:  IPartSL=   20    0 NPrtUSL=   48    1 IThBeg=    0 IThEnd=   47 CPU=   -1 GPU=   -1 NThAct=    7.
 IPart=  7 NShTot=        5382 NBatch=         207 AvBLen=        26.0
 PrsmSu-ThDecC:  IPartSL=    7    0 NPrtUSL=   48    1 IThBeg=    0 IThEnd=   47 CPU=   -1 GPU=   -1 NThAct=    6.
 IPart= 27 NShTot=        4758 NBatch=         183 AvBLen=        26.0
 PrsmSu-ThDecC:  IPartSL=   27    0 NPrtUSL=   48    1 IThBeg=    0 IThEnd=   47 CPU=   -1 GPU=   -1 NThAct=    5.
 IPart=  1 NShTot=        5772 NBatch=         222 AvBLen=        26.0
 PrsmSu-ThDecC:  IPartSL=    1    0 NPrtUSL=   48    1 IThBeg=    0 IThEnd=   47 CPU=   -1 GPU=   -1 NThAct=    4.
 IPart= 19 NShTot=        4940 NBatch=         190 AvBLen=        26.0
 PrsmSu-ThDecC:  IPartSL=   19    0 NPrtUSL=   48    1 IThBeg=    0 IThEnd=   47 CPU=   -1 GPU=   -1 NThAct=    3.
 IPart= 15 NShTot=        5044 NBatch=         194 AvBLen=        26.0
 PrsmSu-ThDecC:  IPartSL=   15    0 NPrtUSL=   48    1 IThBeg=    0 IThEnd=   47 CPU=   -1 GPU=   -1 NThAct=    2.
 IPart=  2 NShTot=        5668 NBatch=         218 AvBLen=        26.0
 PrsmSu-ThDecC:  IPartSL=    2    0 NPrtUSL=   48    1 IThBeg=    0 IThEnd=   47 CPU=   -1 GPU=   -1 NThAct=    1.
 PrSmSu:  NxtVal=           2353.
 --------------------------------------------------------
       Center         ----      EFG at Nuclei      ----
                      3XX-RR        3YY-RR        3ZZ-RR
 --------------------------------------------------------
     1   Atom       -0.102031     -0.023973      0.126005
     2   Atom        0.075589      0.149357     -0.224946
     3   Atom       -0.186202      0.058404      0.127799
     4   Atom       -0.047962      0.217547     -0.169585
     5   Atom        0.357794     -0.085052     -0.272742
     6   Atom       -0.205879      0.192824      0.013056
     7   Atom       -0.369151     -0.761725      1.130877
     8   Atom       -0.415924      0.167598      0.248326
     9   Atom        0.130051      0.131009     -0.261060
    10   Atom        0.124841     -0.142142      0.017301
    11   Atom        0.021551     -0.171673      0.150122
    12   Atom       -0.236618      0.082984      0.153634
    13   Atom        0.130019      0.115271     -0.245290
    14   Atom       -0.573659     -0.615139      1.188798
    15   Atom       -0.031192     -0.047782      0.078974
    16   Atom        0.144935      0.130350     -0.275285
    17   Atom        0.132855     -0.170681      0.037826
    18   Atom       -0.244767      0.108951      0.135816
    19   Atom       -0.306630     -0.155298      0.461928
    20   Atom        0.135345     -0.107572     -0.027773
    21   Atom       -0.013649     -0.017424      0.031074
    22   Atom        0.113165     -0.151095      0.037930
    23   Atom       -0.049769      0.035854      0.013915
    24   Atom        0.119856      0.130976     -0.250832
    25   Atom       -0.134647      0.137343     -0.002696
    26   Atom        0.126217     -0.276046      0.149829
 --------------------------------------------------------
                        XY            XZ            YZ
 --------------------------------------------------------
     1   Atom        0.201787     -0.100645      0.080577
     2   Atom       -0.016223      0.111917     -0.005255
     3   Atom       -0.175402     -0.119346     -0.056218
     4   Atom       -0.046526      0.091674     -0.037009
     5   Atom        0.188274      0.273444     -0.256559
     6   Atom        0.893605     -0.538845      0.727392
     7   Atom       -0.766140      0.553340      1.005177
     8   Atom       -0.222275      0.123434      0.053457
     9   Atom       -0.017195      0.038621      0.096252
    10   Atom       -0.060532     -0.033626     -0.201040
    11   Atom        0.029265     -0.088217     -0.171766
    12   Atom       -0.138688      0.045812      0.011259
    13   Atom       -0.006000      0.028360      0.061596
    14   Atom        0.063716     -0.274177     -0.357076
    15   Atom        0.163056     -0.063818      0.076019
    16   Atom        0.003318      0.025297      0.089487
    17   Atom       -0.056105     -0.042004     -0.192088
    18   Atom       -0.115473      0.090918      0.031540
    19   Atom        0.135218     -0.105656     -0.224065
    20   Atom       -0.043281      0.045037      0.059062
    21   Atom        0.189176     -0.067699      0.039802
    22   Atom       -0.052415     -0.038103     -0.212586
    23   Atom        0.077889     -0.024466      0.020806
    24   Atom       -0.018799     -0.109210     -0.088144
    25   Atom       -0.057364      0.208463      0.047157
    26   Atom       -0.084514     -0.009255     -0.020171
 --------------------------------------------------------


 ---------------------------------------------------------------------------------
              Nuclear Quadrupole Coupling Constant in Principal Axis System
 ---------------------------------------------------------------------------------

       Atom             a.u.   MegaHertz   Gauss  10(-4) cm-1        Axes

              Baa    -0.6850     3.290     1.174     1.097 -0.1568  0.9741  0.1627
    14 N(14)  Bbb    -0.6141     2.949     1.052     0.984  0.9764  0.1281  0.1739
              Bcc     1.2991    -6.239    -2.226    -2.081 -0.1485 -0.1861  0.9712
 

 ---------------------------------------------------------------------------------

 No NMR shielding tensors so no spin-rotation constants.
 Leave Link  601 at Thu Apr 21 16:33:32 2022, MaxMem= 25769803776 cpu:              16.3 elap:               0.4
 Calling FoFJK, ICntrl=      2127 FMM=F ISym2X=0 I1Cent= 0 IOpClX= 0 NMat=1 NMatS=1 NMatT=0.
 ***** Axes restored to original set *****
 -------------------------------------------------------------------
 Center     Atomic                   Forces (Hartrees/Bohr)
 Number     Number              X              Y              Z
 -------------------------------------------------------------------
      1        1           0.008312765    0.006931193   -0.002199343
      2        6           0.006578859    0.015868762    0.003447100
      3        1           0.003396323   -0.002436534    0.001505881
      4        6           0.051639388    0.074386924    0.000627640
      5        6           0.094728766    0.008334815    0.004841911
      6        8           0.061635934    0.140428628    0.350880081
      7        8           0.005823860    0.014413369    0.016154365
      8        6          -0.023302762   -0.008721976    0.006113290
      9        1           0.004578309    0.005556613   -0.002034920
     10        1          -0.000645675    0.000464620   -0.002687746
     11        6          -0.021533355   -0.028367385    0.020957176
     12        1           0.004014907   -0.006520315   -0.010158389
     13        1          -0.002806407   -0.023134566    0.011664143
     14        7           0.002563102   -0.016798918    0.001657662
     15        6           0.001542745   -0.003532100   -0.000341002
     16        1          -0.002567946    0.003228207    0.002502160
     17        1           0.004821520    0.001324542    0.000137042
     18        1           0.003937109   -0.000542729    0.002830324
     19        6          -0.124044081   -0.143089488   -0.218847173
     20        1          -0.079043687    0.036563856   -0.109394301
     21        1          -0.024460438   -0.049003913   -0.043821184
     22        1           0.013022335   -0.027196310   -0.027400817
     23        6           0.014286270   -0.000483845   -0.002804730
     24        1           0.001450986    0.002061405    0.000944864
     25        1          -0.000407831   -0.001554963   -0.002304263
     26        1          -0.003520995    0.001820108   -0.002269771
 -------------------------------------------------------------------
 Cartesian Forces:  Max     0.350880081 RMS     0.059768513

 GradGradGradGradGradGradGradGradGradGradGradGradGradGradGradGradGradGrad
 Berny optimization.
 FormGI is forming the generalized inverse of G from B-inverse, IUseBI=4.
 Internal  Forces:  Max     0.234254795 RMS     0.037650840
 Search for a local minimum.
 Step number   1 out of a maximum of  156
 All quantities printed in internal units (Hartrees-Bohrs-Radians)
 Mixed Optimization -- RFO/linear search
 Second derivative matrix not updated -- first step.
 ITU=  0
     Eigenvalues ---    0.00709   0.00739   0.00834   0.00870   0.00902
     Eigenvalues ---    0.01354   0.01635   0.01914   0.02516   0.02843
     Eigenvalues ---    0.02843   0.03053   0.03489   0.04319   0.04374
     Eigenvalues ---    0.05185   0.05636   0.06257   0.07036   0.07042
     Eigenvalues ---    0.07293   0.07360   0.07506   0.08077   0.09490
     Eigenvalues ---    0.09710   0.10810   0.11378   0.11832   0.11908
     Eigenvalues ---    0.12894   0.13828   0.15919   0.16000   0.16000
     Eigenvalues ---    0.16000   0.16000   0.16000   0.16000   0.16000
     Eigenvalues ---    0.16000   0.16103   0.17564   0.19326   0.24999
     Eigenvalues ---    0.25000   0.27270   0.27776   0.29183   0.32165
     Eigenvalues ---    0.33086   0.33214   0.33812   0.33882   0.34070
     Eigenvalues ---    0.34113   0.34153   0.34167   0.34171   0.34187
     Eigenvalues ---    0.34190   0.34214   0.34252   0.34328   0.34385
     Eigenvalues ---    0.35217   0.35234   0.36364   0.38784   0.49684
     Eigenvalues ---    0.56547   0.71998
 RFO step:  Lambda=-3.67364017D-01 EMin= 7.09176981D-03
 Linear search not attempted -- first point.
 Maximum step size (   0.300) exceeded in Quadratic search.
    -- Step size scaled by   0.449
 Iteration  1 RMS(Cart)=  0.08609844 RMS(Int)=  0.00175915
 Iteration  2 RMS(Cart)=  0.00203276 RMS(Int)=  0.00054319
 Iteration  3 RMS(Cart)=  0.00000403 RMS(Int)=  0.00054318
 Iteration  4 RMS(Cart)=  0.00000001 RMS(Int)=  0.00054318
 Variable       Old X    -DE/DX   Delta X   Delta X   Delta X     New X
                                 (Linear)    (Quad)   (Total)
    R1        2.05297  -0.00816   0.00000  -0.00509  -0.00509   2.04788
    R2        2.05324  -0.00108   0.00000  -0.00067  -0.00067   2.05257
    R3        2.53783  -0.00125   0.00000  -0.00060  -0.00060   2.53723
    R4        2.81977   0.08394   0.00000   0.05382   0.05382   2.87359
    R5        2.83843   0.01250   0.00000   0.00813   0.00813   2.84656
    R6        2.30631   0.09257   0.00000   0.03263   0.03125   2.33756
    R7        2.57337   0.00760   0.00000   0.00468   0.00507   2.57844
    R8        3.24579   0.23425   0.00000   0.18151   0.18231   3.42809
    R9        2.02195   0.20361   0.00000   0.13634   0.13700   2.15895
   R10        2.71616   0.04618   0.00000   0.02686   0.02737   2.74353
   R11        2.07140  -0.00227   0.00000  -0.00144  -0.00144   2.06996
   R12        2.06906  -0.00279   0.00000  -0.00176  -0.00176   2.06730
   R13        2.90519   0.00545   0.00000   0.00242   0.00243   2.90762
   R14        2.07530  -0.00132   0.00000  -0.00084  -0.00084   2.07447
   R15        2.07648  -0.01117   0.00000  -0.00710  -0.00710   2.06938
   R16        2.79163   0.02073   0.00000   0.01071   0.01018   2.80182
   R17        2.76816  -0.00753   0.00000  -0.00462  -0.00462   2.76354
   R18        2.76926   0.04190   0.00000   0.02574   0.02520   2.79445
   R19        2.07049   0.00462   0.00000   0.00292   0.00292   2.07341
   R20        2.07073  -0.00154   0.00000  -0.00097  -0.00097   2.06976
   R21        2.06781  -0.00058   0.00000  -0.00036  -0.00036   2.06744
   R22        2.07178   0.14962   0.00000   0.09875   0.09858   2.17036
   R23        2.06971  -0.01384   0.00000  -0.00875  -0.00875   2.06096
   R24        2.07213   0.01747   0.00000   0.01107   0.01107   2.08320
   R25        2.07015  -0.00129   0.00000  -0.00081  -0.00081   2.06934
   R26        2.07011  -0.00176   0.00000  -0.00111  -0.00111   2.06900
   R27        2.06686  -0.00422   0.00000  -0.00266  -0.00266   2.06419
    A1        2.03487  -0.00087   0.00000  -0.00074  -0.00074   2.03413
    A2        2.13961   0.01047   0.00000   0.00891   0.00890   2.14851
    A3        2.10870  -0.00961   0.00000  -0.00818  -0.00818   2.10052
    A4        2.13914   0.04226   0.00000   0.03070   0.03069   2.16983
    A5        2.10826  -0.02660   0.00000  -0.01933  -0.01933   2.08893
    A6        2.03577  -0.01569   0.00000  -0.01140  -0.01140   2.02437
    A7        2.14503   0.04402   0.00000   0.03049   0.02685   2.17188
    A8        1.95687  -0.01693   0.00000  -0.01401  -0.01313   1.94374
    A9        1.52016   0.06820   0.00000   0.06637   0.06615   1.58632
   A10        2.18125  -0.02657   0.00000  -0.01594  -0.01527   2.16598
   A11        1.22294   0.05105   0.00000   0.04019   0.03967   1.26261
   A12        2.00254  -0.05598   0.00000  -0.04467  -0.04492   1.95762
   A13        1.48844  -0.02534   0.00000  -0.01070  -0.01136   1.47708
   A14        1.96940   0.02741   0.00000   0.02637   0.02716   1.99655
   A15        1.90715  -0.01836   0.00000  -0.01749  -0.01762   1.88952
   A16        1.88411  -0.00864   0.00000  -0.00475  -0.00480   1.87931
   A17        1.92074   0.03501   0.00000   0.02894   0.02912   1.94986
   A18        1.91471   0.00302   0.00000   0.00145   0.00140   1.91611
   A19        1.91420  -0.00721   0.00000  -0.00341  -0.00305   1.91116
   A20        1.92264  -0.00392   0.00000  -0.00487  -0.00528   1.91736
   A21        1.90911   0.01271   0.00000   0.00976   0.01001   1.91911
   A22        1.87221  -0.01111   0.00000  -0.01047  -0.01060   1.86161
   A23        1.98927  -0.00851   0.00000  -0.00455  -0.00469   1.98458
   A24        1.84411  -0.00375   0.00000  -0.00326  -0.00325   1.84086
   A25        1.93859  -0.00543   0.00000  -0.00435  -0.00424   1.93435
   A26        1.90371   0.01625   0.00000   0.01275   0.01272   1.91643
   A27        1.96007  -0.02225   0.00000  -0.01797  -0.01796   1.94210
   A28        1.92647   0.03320   0.00000   0.02875   0.02787   1.95434
   A29        1.90989   0.00474   0.00000   0.00536   0.00607   1.91597
   A30        1.95623   0.00369   0.00000   0.00311   0.00311   1.95934
   A31        1.93037  -0.00548   0.00000  -0.00464  -0.00464   1.92573
[...]
 **** Fit       0.002809
 **** Fit       0.002443
 **** Fit      -0.001056
 **** Fit      -0.000252
 **** Fit       0.000860
 **** Fit       0.002300
 **** Fit       0.004044
 **** Fit       0.005929
 **** Fit       0.007547
 **** Fit       0.008370
 **** Fit       0.008194
 **** Fit       0.007338
 **** Fit       0.006273
 **** Fit       0.005270
 **** Fit       0.004416
 **** Fit       0.003721
 **** Fit       0.003167
 **** Fit       0.002724
 **** Fit      -0.000205
 **** Fit       0.000686
 **** Fit       0.001895
 **** Fit       0.003445
 **** Fit       0.005299
 **** Fit       0.007250
 **** Fit       0.008827
 **** Fit       0.009467
 **** Fit       0.008991
 **** Fit       0.007796
 **** Fit       0.006451
 **** Fit       0.005278
 **** Fit       0.004348
 **** Fit       0.003630
 **** Fit       0.003073
 **** Fit       0.000587
 **** Fit       0.001510
 **** Fit       0.002725
 **** Fit       0.004238
 **** Fit       0.005983
 **** Fit       0.007736
 **** Fit       0.009070
 **** Fit       0.009524
 **** Fit       0.008973
 **** Fit       0.007765
 **** Fit       0.006406
 **** Fit       0.005210
 **** Fit       0.004263
 **** Fit       0.003537
 **** Fit       0.002977
 **** Fit       0.001249
 **** Fit       0.002144
 **** Fit       0.003275
 **** Fit       0.004625
 **** Fit       0.006104
 **** Fit       0.007509
 **** Fit       0.008512
 **** Fit       0.008803
 **** Fit       0.008314
 **** Fit       0.007294
 **** Fit       0.006109
 **** Fit       0.005020
 **** Fit       0.004125
 **** Fit       0.003421
 **** Fit       0.002870
 **** Fit       0.002571
 **** Fit       0.003561
 **** Fit       0.004685
 **** Fit       0.005852
 **** Fit       0.006896
 **** Fit       0.007595
 **** Fit       0.007765
 **** Fit       0.007377
 **** Fit       0.006588
 **** Fit       0.005637
 **** Fit       0.004717
 **** Fit       0.003920
 **** Fit       0.003267
 **** Fit       0.002812
 **** Fit       0.003641
 **** Fit       0.004536
 **** Fit       0.005417
 **** Fit       0.006161
 **** Fit       0.006629
 **** Fit       0.006718
 **** Fit       0.006417
 **** Fit       0.005824
 **** Fit       0.005087
 **** Fit       0.004339
 **** Fit       0.003657
 **** Fit       0.003577
 **** Fit       0.004271
 **** Fit       0.004921
 **** Fit       0.005442
 **** Fit       0.005748
 **** Fit       0.005782
 **** Fit       0.005545
 **** Fit       0.005096
 **** Fit       0.004527
 **** Fit       0.003925
 **** Fit       0.003353
 **** Fit       0.004424
 **** Fit       0.004785
 **** Fit       0.004980
 **** Fit       0.004980
 **** Fit       0.004786
 **** Fit       0.004437
 **** Fit       0.003991
 **** Fit       0.004227
 **** Fit       0.004326
 **** Fit       0.003279
 **** Fit       0.003919
 **** Fit       0.004432
 **** Fit       0.004759
 **** Fit       0.004872
 **** Fit       0.004781
 **** Fit       0.004533
 **** Fit       0.004189
 **** Fit       0.002638
 **** Fit       0.003497
 **** Fit       0.004306
 **** Fit       0.004963
 **** Fit       0.005380
 **** Fit       0.005507
 **** Fit       0.005361
 **** Fit       0.005014
 **** Fit       0.004557
 **** Fit       0.004073
 **** Fit       0.001662
 **** Fit       0.002636
 **** Fit       0.003680
 **** Fit       0.004691
 **** Fit       0.005533
 **** Fit       0.006065
 **** Fit       0.006208
 **** Fit       0.005986
 **** Fit       0.005509
 **** Fit       0.004916
 **** Fit       0.004316
 **** Fit       0.003771
 **** Fit       0.000498
 **** Fit       0.001428
 **** Fit       0.002536
 **** Fit       0.003766
 **** Fit       0.005000
 **** Fit       0.006055
 **** Fit       0.006728
 **** Fit       0.006893
 **** Fit       0.006581
 **** Fit       0.005957
 **** Fit       0.005218
 **** Fit       0.004505
 **** Fit       0.003884
 **** Fit       0.000112
 **** Fit       0.001091
 **** Fit       0.002294
 **** Fit       0.003672
 **** Fit       0.005104
 **** Fit       0.006368
 **** Fit       0.007192
 **** Fit       0.007392
 **** Fit       0.007004
 **** Fit       0.006255
 **** Fit       0.005401
 **** Fit       0.004606
 **** Fit       0.003936
 **** Fit       0.003394
 **** Fit      -0.000317
 **** Fit       0.000659
 **** Fit       0.001884
 **** Fit       0.003324
 **** Fit       0.004863
 **** Fit       0.006267
 **** Fit       0.007215
 **** Fit       0.007475
 **** Fit       0.007080
 **** Fit       0.006295
 **** Fit       0.005409
 **** Fit       0.004598
 **** Fit       0.003923
 **** Fit       0.003381
 **** Fit      -0.000739
 **** Fit       0.000181
 **** Fit       0.001343
 **** Fit       0.002723
 **** Fit       0.004226
 **** Fit       0.005637
 **** Fit       0.006642
 **** Fit       0.006995
 **** Fit       0.006710
 **** Fit       0.006034
 **** Fit       0.005239
 **** Fit       0.004493
 **** Fit       0.003859
 **** Fit       0.003340
 **** Fit      -0.001079
 **** Fit      -0.000250
 **** Fit       0.000788
 **** Fit       0.002011
 **** Fit       0.003345
 **** Fit       0.004628
 **** Fit       0.005611
 **** Fit       0.006079
 **** Fit       0.006010
 **** Fit       0.005567
 **** Fit       0.004960
 **** Fit       0.004336
 **** Fit       0.003770
 **** Fit       0.003286
 **** Fit      -0.001255
 **** Fit      -0.000516
 **** Fit       0.000390
 **** Fit       0.001432
 **** Fit       0.002555
 **** Fit       0.003654
 **** Fit       0.004565
 **** Fit       0.005129
 **** Fit       0.005283
 **** Fit       0.005092
 **** Fit       0.004682
 **** Fit       0.004182
 **** Fit       0.003682
 **** Fit       0.003230
 **** Fit      -0.001205
 **** Fit      -0.000518
 **** Fit       0.000305
 **** Fit       0.001226
 **** Fit       0.002196
 **** Fit       0.003144
 **** Fit       0.003968
 **** Fit       0.004552
 **** Fit       0.004821
 **** Fit       0.004774
 **** Fit       0.004485
 **** Fit       0.004062
 **** Fit       0.003605
 **** Fit       0.003175
 **** Fit      -0.000913
 **** Fit      -0.000220
 **** Fit       0.000599
 **** Fit       0.001501
 **** Fit       0.002426
 **** Fit       0.003299
 **** Fit       0.004027
 **** Fit       0.004522
 **** Fit       0.004737
 **** Fit       0.004673
 **** Fit       0.004390
 **** Fit       0.003982
 **** Fit       0.003538
 **** Fit       0.003117
 **** Fit      -0.000995
 **** Fit      -0.000412
 **** Fit       0.000334
 **** Fit       0.001217
 **** Fit       0.002186
 **** Fit       0.003159
 **** Fit       0.004018
 **** Fit       0.004640
 **** Fit       0.004955
 **** Fit       0.004973
 **** Fit       0.004755
 **** Fit       0.004381
 **** Fit       0.003933
 **** Fit       0.003477
 **** Fit      -0.000427
 **** Fit       0.000215
 **** Fit       0.001032
 **** Fit       0.002000
 **** Fit       0.003062
 **** Fit       0.004106
 **** Fit       0.004965
 **** Fit       0.005479
 **** Fit       0.005585
 **** Fit       0.005356
 **** Fit       0.004930
 **** Fit       0.004420
 **** Fit       0.003902
 **** Fit       0.003417
 **** Fit       0.000177
 **** Fit       0.000867
 **** Fit       0.001735
 **** Fit       0.002755
 **** Fit       0.003862
 **** Fit       0.004924
 **** Fit       0.005747
 **** Fit       0.006154
 **** Fit       0.006092
 **** Fit       0.005673
 **** Fit       0.005080
 **** Fit       0.004454
 **** Fit       0.003870
 **** Fit       0.003355
 **** Fit       0.001456
 **** Fit       0.002327
 **** Fit       0.003332
 **** Fit       0.004399
 **** Fit       0.005389
 **** Fit       0.006119
 **** Fit       0.006425
 **** Fit       0.006269
 **** Fit       0.005769
 **** Fit       0.005106
 **** Fit       0.004427
 **** Fit       0.003810
 **** Fit       0.003278
 **** Fit       0.001924
 **** Fit       0.002748
 **** Fit       0.003672
 **** Fit       0.004621
 **** Fit       0.005472
 **** Fit       0.006069
 **** Fit       0.006286
 **** Fit       0.006102
 **** Fit       0.005612
 **** Fit       0.004970
 **** Fit       0.004308
 **** Fit       0.003700
 **** Fit       0.003172
 **** Fit       0.002990
 **** Fit       0.003791
 **** Fit       0.004585
 **** Fit       0.005269
 **** Fit       0.005727
 **** Fit       0.005873
 **** Fit       0.005695
 **** Fit       0.005265
 **** Fit       0.004697
 **** Fit       0.004097
 **** Fit       0.003532
 **** Fit       0.003080
 **** Fit       0.003745
 **** Fit       0.004380
 **** Fit       0.004906
 **** Fit       0.005242
 **** Fit       0.005333
 **** Fit       0.005173
 **** Fit       0.004814
 **** Fit       0.004336
 **** Fit       0.003817
 **** Fit       0.004083
 **** Fit       0.004476
 **** Fit       0.004715
 **** Fit       0.004764
 **** Fit       0.004625
 **** Fit       0.004330
 **** Fit       0.003935
 **** Fit       0.004198
 **** Fit       0.004218
 **** Fit       0.004095
 **** Fit       0.003738
 **** Fit       0.004007
 **** Fit       0.004123
 **** Fit       0.002973
 **** Fit       0.003574
 **** Fit       0.004065
 **** Fit       0.004392
 **** Fit       0.004525
 **** Fit       0.004471
 **** Fit       0.004269
 **** Fit       0.003973
 **** Fit       0.002303
 **** Fit       0.003062
 **** Fit       0.003779
 **** Fit       0.004373
 **** Fit       0.004767
 **** Fit       0.004920
 **** Fit       0.004839
 **** Fit       0.004580
 **** Fit       0.004216
 **** Fit       0.003815
 **** Fit       0.001398
 **** Fit       0.002209
 **** Fit       0.003070
 **** Fit       0.003902
 **** Fit       0.004603
 **** Fit       0.005071
 **** Fit       0.005248
 **** Fit       0.005144
 **** Fit       0.004831
 **** Fit       0.004405
 **** Fit       0.003948
 **** Fit       0.001158
 **** Fit       0.002021
 **** Fit       0.002956
 **** Fit       0.003881
 **** Fit       0.004675
 **** Fit       0.005215
 **** Fit       0.005424
 **** Fit       0.005313
 **** Fit       0.004968
 **** Fit       0.004504
 **** Fit       0.004015
 **** Fit       0.003555
 **** Fit       0.000863
 **** Fit       0.001736
 **** Fit       0.002698
 **** Fit       0.003666
 **** Fit       0.004516
 **** Fit       0.005113
 **** Fit       0.005365
 **** Fit       0.005279
 **** Fit       0.004948
 **** Fit       0.004491
 **** Fit       0.004006
 **** Fit       0.003548
 **** Fit       0.000548
 **** Fit       0.001388
 **** Fit       0.002319
 **** Fit       0.003268
 **** Fit       0.004120
 **** Fit       0.004745
 **** Fit       0.005051
 **** Fit       0.005033
 **** Fit       0.004770
 **** Fit       0.004372
 **** Fit       0.003929
 **** Fit       0.003499
 **** Fit       0.000275
 **** Fit       0.001050
 **** Fit       0.001906
 **** Fit       0.002782
 **** Fit       0.003586
 **** Fit       0.004210
 **** Fit       0.004570
 **** Fit       0.004648
 **** Fit       0.004493
 **** Fit       0.004189
 **** Fit       0.003814
 **** Fit       0.003427
 **** Fit       0.000114
 **** Fit       0.000818
 **** Fit       0.001588
 **** Fit       0.002372
 **** Fit       0.003103
 **** Fit       0.003703
 **** Fit       0.004101
 **** Fit       0.004266
 **** Fit       0.004215
 **** Fit       0.004003
 **** Fit       0.003695
 **** Fit       0.003349
 **** Fit       0.000122
 **** Fit       0.000778
 **** Fit       0.001483
 **** Fit       0.002193
 **** Fit       0.002857
 **** Fit       0.003416
 **** Fit       0.003814
 **** Fit       0.004017
 **** Fit       0.004022
 **** Fit       0.003864
 **** Fit       0.003597
 **** Fit       0.003278
 **** Fit       0.000320
 **** Fit       0.000964
 **** Fit       0.001646
 **** Fit       0.002321
 **** Fit       0.002936
 **** Fit       0.003442
 **** Fit       0.003793
 **** Fit       0.003963
 **** Fit       0.003954
 **** Fit       0.003794
 **** Fit       0.003531
 **** Fit       0.000681
 **** Fit       0.001345
 **** Fit       0.002041
 **** Fit       0.002713
 **** Fit       0.003299
 **** Fit       0.003741
 **** Fit       0.004004
 **** Fit       0.004081
 **** Fit       0.003995
 **** Fit       0.003784
 **** Fit       0.003493
 **** Fit       0.000519
 **** Fit       0.001140
 **** Fit       0.001835
 **** Fit       0.002558
 **** Fit       0.003239
 **** Fit       0.003799
 **** Fit       0.004172
 **** Fit       0.004329
 **** Fit       0.004287
 **** Fit       0.004095
 **** Fit       0.003806
 **** Fit       0.003469
 **** Fit       0.000971
 **** Fit       0.001613
 **** Fit       0.002327
 **** Fit       0.003058
 **** Fit       0.003731
 **** Fit       0.004255
 **** Fit       0.004559
 **** Fit       0.004620
 **** Fit       0.004472
 **** Fit       0.004184
 **** Fit       0.003824
 **** Fit       0.003441
 **** Fit       0.002029
 **** Fit       0.002729
 **** Fit       0.003434
 **** Fit       0.004066
 **** Fit       0.004536
 **** Fit       0.004774
 **** Fit       0.004765
 **** Fit       0.004550
 **** Fit       0.004204
 **** Fit       0.003799
 **** Fit       0.003387
 **** Fit       0.002341
 **** Fit       0.002994
 **** Fit       0.003637
 **** Fit       0.004198
 **** Fit       0.004597
 **** Fit       0.004776
 **** Fit       0.004726
 **** Fit       0.004486
 **** Fit       0.004124
 **** Fit       0.003710
 **** Fit       0.003293
 **** Fit       0.003116
 **** Fit       0.003674
 **** Fit       0.004146
 **** Fit       0.004469
 **** Fit       0.004599
 **** Fit       0.004530
 **** Fit       0.004294
 **** Fit       0.003950
 **** Fit       0.003555
 **** Fit       0.003583
 **** Fit       0.003965
 **** Fit       0.004216
 **** Fit       0.004305
 **** Fit       0.004229
 **** Fit       0.004013
 **** Fit       0.003703
 **** Fit       0.003894
 **** Fit       0.003950
 **** Fit       0.003874
 **** Fit       0.003119
 **** Fit       0.003554
 **** Fit       0.003856
 **** Fit       0.004002
 **** Fit       0.003993
 **** Fit       0.003858
 **** Fit       0.002575
 **** Fit       0.003163
 **** Fit       0.003657
 **** Fit       0.004003
 **** Fit       0.004170
 **** Fit       0.004160
 **** Fit       0.004006
 **** Fit       0.003758
 **** Fit       0.001815
 **** Fit       0.002478
 **** Fit       0.003115
 **** Fit       0.003658
 **** Fit       0.004044
 **** Fit       0.004236
 **** Fit       0.004234
 **** Fit       0.004076
 **** Fit       0.003817
 **** Fit       0.003509
 **** Fit       0.001623
 **** Fit       0.002301
 **** Fit       0.002960
 **** Fit       0.003532
 **** Fit       0.003950
 **** Fit       0.004170
 **** Fit       0.004192
 **** Fit       0.004052
 **** Fit       0.003804
 **** Fit       0.003503
 **** Fit       0.001401
 **** Fit       0.002066
 **** Fit       0.002719
 **** Fit       0.003295
 **** Fit       0.003730
 **** Fit       0.003981
 **** Fit       0.004041
 **** Fit       0.003940
 **** Fit       0.003726
 **** Fit       0.003451
 **** Fit       0.001197
 **** Fit       0.001826
 **** Fit       0.002447
 **** Fit       0.003005
 **** Fit       0.003444
 **** Fit       0.003721
 **** Fit       0.003826
 **** Fit       0.003776
 **** Fit       0.003610
 **** Fit       0.003371
 **** Fit       0.001064
 **** Fit       0.001650
 **** Fit       0.002229
 **** Fit       0.002755
 **** Fit       0.003183
 **** Fit       0.003476
 **** Fit       0.003616
 **** Fit       0.003612
 **** Fit       0.003489
 **** Fit       0.003285
 **** Fit       0.001599
 **** Fit       0.002139
 **** Fit       0.002630
 **** Fit       0.003036
 **** Fit       0.003324
 **** Fit       0.003476
 **** Fit       0.003493
 **** Fit       0.003394
 **** Fit       0.001168
 **** Fit       0.001699
 **** Fit       0.002213
 **** Fit       0.002673
 **** Fit       0.003046
 **** Fit       0.003305
 **** Fit       0.003437
 **** Fit       0.003442
 **** Fit       0.003339
 **** Fit       0.001407
 **** Fit       0.001933
 **** Fit       0.002432
 **** Fit       0.002864
 **** Fit       0.003197
 **** Fit       0.003407
 **** Fit       0.003490
 **** Fit       0.003454
 **** Fit       0.003321
 **** Fit       0.001716
 **** Fit       0.002243
 **** Fit       0.002731
 **** Fit       0.003136
 **** Fit       0.003423
 **** Fit       0.003574
 **** Fit       0.003593
 **** Fit       0.003499
 **** Fit       0.003322
 **** Fit       0.002036
 **** Fit       0.002555
 **** Fit       0.003026
 **** Fit       0.003399
 **** Fit       0.003639
 **** Fit       0.003732
 **** Fit       0.003689
 **** Fit       0.003540
 **** Fit       0.003319
 **** Fit       0.002310
 **** Fit       0.002807
 **** Fit       0.003247
 **** Fit       0.003581
 **** Fit       0.003775
 **** Fit       0.003820
 **** Fit       0.003730
 **** Fit       0.003541
 **** Fit       0.003288
 **** Fit       0.002962
 **** Fit       0.003358
 **** Fit       0.003646
 **** Fit       0.003799
 **** Fit       0.003808
 **** Fit       0.003691
 **** Fit       0.003481
 **** Fit       0.003356
 **** Fit       0.003596
 **** Fit       0.003712
 **** Fit       0.003698
 **** Fit       0.003569
 **** Fit       0.002994
 **** Fit       0.003285
 **** Fit       0.003452
 **** Fit       0.003493
 **** Fit       0.002498
 **** Fit       0.002909
 **** Fit       0.003219
 **** Fit       0.003405
 **** Fit       0.003463
 **** Fit       0.003409
 **** Fit       0.002353
 **** Fit       0.002769
 **** Fit       0.003090
 **** Fit       0.003294
 **** Fit       0.003373
 **** Fit       0.003341
 **** Fit       0.002199
 **** Fit       0.002608
 **** Fit       0.002933
 **** Fit       0.003150
 **** Fit       0.003251
 **** Fit       0.003244
 **** Fit       0.002080
 **** Fit       0.002473
 **** Fit       0.002793
 **** Fit       0.003015
 **** Fit       0.003132
 **** Fit       0.002408
 **** Fit       0.002713
 **** Fit       0.002930
 **** Fit       0.002535
 **** Fit       0.002792
 **** Fit       0.002961
 **** Fit       0.002378
 **** Fit       0.002685
 **** Fit       0.002911
 **** Fit       0.003044
 **** Fit       0.002836
 **** Fit       0.003029
 **** Fit       0.003125
 **** Fit       0.003108
 -----------------------------------------------------------------
 Leave Link  602 at Thu Apr 21 16:53:19 2022, MaxMem=   104857600 cpu:               2.2 elap:               2.2
 (Enter /opt/ohpc/pub/libs/gaussian/g16-A.03/haswell/g16/l9999.exe)

 Test job not archived.
 1\1\GINC-CASCADEB038\SP\RB3LYP\6-311++G(d,p)\C8H15N1O2\MNG228\21-Apr-2
 022\0\\#P B3LYP/6-311++G(d,p) Geom=Allcheck SCF=Tight EmpiricalDispers
 ion=GD3BJ Pop=CHELPG SP IOp(6/33=2)\\DMAEMA geo opt\\0,1\H,0,0.7518946
 489,2.0918421923,0.6712365417\C,0,1.1318359935,1.5767136082,-0.2021166
 794\H,0,1.645958847,2.1589019978,-0.9579398298\C,0,0.9681629693,0.2585
 570346,-0.3370210045\C,0,0.2445973505,-0.4580842923,0.7604871562\O,0,-
 0.2248268586,0.0601675005,1.7476008572\O,0,0.1778731713,-1.785927603,0
 .5132987103\C,0,-0.5308865445,-2.5965879268,1.4814041776\H,0,-0.108421
 3134,-3.5948091387,1.3727911714\H,0,-0.3225588748,-2.2033201197,2.4760
 729699\C,0,-2.0344098128,-2.6297569036,1.239841089\H,0,-2.4950140596,-
 2.9794499108,2.1686041079\H,0,-2.3972778608,-1.5995502942,1.0748306532
 \N,0,-2.4493148967,-3.5398218215,0.1760836843\C,0,-3.8889069878,-3.761
 1468988,0.2176511988\H,0,-4.4704217068,-2.8384006089,0.0344679382\H,0,
 -4.1684869668,-4.4935476645,-0.5428301778\H,0,-4.17679231,-4.157447895
 9,1.1941116366\C,0,-2.032063369,-3.0961811658,-1.1498439089\H,0,-2.454
 3053706,-2.108531314,-1.415428267\H,0,-0.9471305961,-3.0252313336,-1.2
 041901394\H,0,-2.3681748195,-3.8219925331,-1.8934137212\C,0,1.46180179
 38,-0.529707905,-1.5188756171\H,0,0.6346085767,-1.0263571821,-2.032713
 5386\H,0,1.9694432366,0.1251833457,-2.2287097181\H,0,2.1551157602,-1.3
 148131668,-1.2072992905\\Version=ES64L-G16RevA.03\State=1-A\HF=-519.25
 36364\RMSD=2.715e-09\Dipole=0.0291097,-0.2762618,-0.5898309\Quadrupole
 =2.0364737,-1.5573063,-0.4791674,2.5792484,-1.7630774,-4.1832765\PG=C0
 1 [X(C8H15N1O2)]\\@


 THE ONLY TROUBLE WITH A SURE THING IS THE UNCERTAINTY.
     -- FROM A TEABAG (BELONGING TO W.H.?)
 Job cpu time:       0 days  0 hours  5 minutes 41.7 seconds.
 Elapsed time:       0 days  0 hours  5 minutes 43.3 seconds.
 File lengths (MBytes):  RWF=    304 Int=      0 D2E=      0 Chk=     32 Scr=     32
 Normal termination of Gaussian 16 at Thu Apr 21 16:53:19 2022.
