 Entering Gaussian System, Link 0=g16
 Initial command:
 /opt/ohpc/pub/libs/gaussian/g16-A.03/haswell/g16/l1.exe "g16_scratch/Gau-314219.inp" -scrdir="g16_scratch/"
 Entering Link 1 = /opt/ohpc/pub/libs/gaussian/g16-A.03/haswell/g16/l1.exe PID=    314220.
  
 Copyright (c) 1988,1990,1992,1993,1995,1998,2003,2009,2016,
            Gaussian, Inc.  All Rights Reserved.
  
 This is part of the Gaussian(R) 16 program.  It is based on
 the Gaussian(R) 09 system (copyright 2009, Gaussian, Inc.),
 the Gaussian(R) 03 system (copyright 2003, Gaussian, Inc.),
 the Gaussian(R) 98 system (copyright 1998, Gaussian, Inc.),
 the Gaussian(R) 94 system (copyright 1995, Gaussian, Inc.),
 the Gaussian 92(TM) system (copyright 1992, Gaussian, Inc.),
 the Gaussian 90(TM) system (copyright 1990, Gaussian, Inc.),
 the Gaussian 88(TM) system (copyright 1988, Gaussian, Inc.),
 the Gaussian 86(TM) system (copyright 1986, Carnegie Mellon
 University), and the Gaussian 82(TM) system (copyright 1983,
 Carnegie Mellon University). Gaussian is a federally registered
 trademark of Gaussian, Inc.
  
 This software contains proprietary and confidential information,
 including trade secrets, belonging to Gaussian, Inc.
  
 This software is provided under written license and may be
 used, copied, transmitted, or stored only in accord with that
 written license.
  
 The following legend is applicable only to US Government
 contracts under FAR:
  
                    RESTRICTED RIGHTS LEGEND
  
 Use, reproduction and disclosure by the US Government is
 subject to restrictions as set forth in subparagraphs (a)
 and (c) of the Commercial Computer Software - Restricted
 Rights clause in FAR 52.227-19.
  
 Gaussian, Inc.
 340 Quinnipiac St., Bldg. 40, Wallingford CT 06492
  
  
 ---------------------------------------------------------------
 Warning -- This program may not be used in any manner that
 competes with the business of Gaussian, Inc. or will provide
 assistance to any competitor of Gaussian, Inc.  The licensee
 of this program is prohibited from giving any competitor of
 Gaussian, Inc. access to this program.  By using this program,
 the user acknowledges that Gaussian, Inc. is engaged in the
 business of creating and licensing software in the field of
 computational chemistry and represents and warrants to the
 licensee that it is not a competitor of Gaussian, Inc. and that
 it will not use this program in any manner prohibited above.
 ---------------------------------------------------------------
  

 Cite this work as:
 Gaussian 16, Revision A.03,
 M. J. Frisch, G. W. Trucks, H. B. Schlegel, G. E. Scuseria, 
 M. A. Robb, J. R. Cheeseman, G. Scalmani, V. Barone, 
 G. A. Petersson, H. Nakatsuji, X. Li, M. Caricato, A. V. Marenich, 
 J. Bloino, B. G. Janesko, R. Gomperts, B. Mennucci, H. P. Hratchian, 
 J. V. Ortiz, A. F. Izmaylov, J. L. Sonnenberg, D. Williams-Young, 
 F. Ding, F. Lipparini, F. Egidi, J. Goings, B. Peng, A. Petrone, 
 T. Henderson, D. Ranasinghe, V. G. Zakrzewski, J. Gao, N. Rega, 
 G. Zheng, W. Liang, M. Hada, M. Ehara, K. Toyota, R. Fukuda, 
 J. Hasegawa, M. Ishida, T. Nakajima, Y. Honda, O. Kitao, H. Nakai, 
 T. Vreven, K. Throssell, J. A. Montgomery, Jr., J. E. Peralta, 
 F. Ogliaro, M. J. Bearpark, J. J. Heyd, E. N. Brothers, K. N. Kudin, 
 V. N. Staroverov, T. A. Keith, R. Kobayashi, J. Normand, 
 K. Raghavachari, A. P. Rendell, J. C. Burant, S. S. Iyengar, 
 J. Tomasi, M. Cossi, J. M. Millam, M. Klene, C. Adamo, R. Cammi, 
 J. W. Ochterski, R. L. Martin, K. Morokuma, O. Farkas, 
 J. B. Foresman, and D. J. Fox, Gaussian, Inc., Wallingford CT, 2016.
 
 ******************************************
 Gaussian 16:  ES64L-G16RevA.03 25-Dec-2016
                21-Apr-2022 
 ******************************************
 %Mem=192GB
 %NProcShared=48
 Will use up to   48 processors via shared memory.
 %Chk=DMAEMA-1.chk
 ---------------------------------------------------------------------
 #n B3LYP/6-311++G(d,p) Opt freq EmpiricalDispersion=GD3BJ IOp(6/33=2)
 ---------------------------------------------------------------------
 1/18=20,19=15,26=3,38=1/1,3;
 2/9=110,12=2,17=6,18=5,40=1/2;
 3/5=4,6=6,7=1111,11=2,25=1,30=1,71=1,74=-5,124=41/1,2,3;
 4//1;
 5/5=2,38=5/2;
 6/7=2,8=2,9=2,10=2,28=1,33=2/1;
 7//1,2,3,16;
 1/18=20,19=15,26=3/3(2);
 2/9=110/2;
 99//99;
 2/9=110/2;
 3/5=4,6=6,7=1111,11=2,25=1,30=1,71=1,74=-5,124=41/1,2,3;
 4/5=5,16=3,69=1/1;
 5/5=2,38=5/2;
 7//1,2,3,16;
 1/18=20,19=15,26=3/3(-5);
 2/9=110/2;
 6/7=2,8=2,9=2,10=2,19=2,28=1,33=2/1;
 99/9=1/99;
 --------------
 DMAEMA geo opt
 --------------
 Symbolic Z-matrix:
 Charge =  0 Multiplicity = 1
 H                     4.6054   -1.7745    1.0292 
 C                     3.9441   -0.916     1.1078 
 H                     4.4187    0.0543    1.225 
 C                     2.6065   -1.0267    1.0622 
 C                     1.9144   -2.3382    0.8957 
 O                     2.5144   -3.3956    0.79 
 O                     0.5591   -2.2054    0.8881 
 C                    -0.1173   -3.3578    1.4176 
 H                     0.138    -4.2363    0.8138 
 H                     0.2239   -3.5058    2.4474 
 C                    -1.6382   -3.1351    1.3902 
 H                    -2.1394   -3.9818    1.878 
 H                    -1.8513   -2.2609    2.0209 
 N                    -2.1863   -2.9004    0.0386 
 C                    -1.9374   -4.0257   -0.8654 
 H                    -2.3545   -4.9631   -0.481 
 H                    -2.3736   -3.8317   -1.8517 
 H                    -0.8667   -4.1654   -1.0428 
 C                    -3.6271   -2.6419    0.1101 
 H                    -4.18     -3.4965    0.5174 
 H                    -3.8356   -1.7645    0.7315 
 H                    -4.0268   -2.4202   -0.8866 
 C                     1.7302    0.1883    1.1707 
 H                     1.8942    0.6938    2.1287 
 H                     1.9544    0.8925    0.362 
 H                     0.6636   -0.0455    1.1073 
 

 GradGradGradGradGradGradGradGradGradGradGradGradGradGradGradGradGradGrad
 Berny optimization.
 Initialization pass.
                           ----------------------------
                           !    Initial Parameters    !
                           ! (Angstroms and Degrees)  !
 --------------------------                            --------------------------
 ! Name  Definition              Value          Derivative Info.                !
 --------------------------------------------------------------------------------
 ! R1    R(1,2)                  1.0865         estimate D2E/DX2                !
 ! R2    R(2,3)                  1.0865         estimate D2E/DX2                !
 ! R3    R(2,4)                  1.3429         estimate D2E/DX2                !
 ! R4    R(4,5)                  1.4922         estimate D2E/DX2                !
 ! R5    R(4,23)                 1.502          estimate D2E/DX2                !
 ! R6    R(5,6)                  1.2204         estimate D2E/DX2                !
 ! R7    R(5,7)                  1.3618         estimate D2E/DX2                !
 ! R8    R(7,8)                  1.4373         estimate D2E/DX2                !
 ! R9    R(8,9)                  1.0961         estimate D2E/DX2                !
 ! R10   R(8,10)                 1.0949         estimate D2E/DX2                !
 ! R11   R(8,11)                 1.5374         estimate D2E/DX2                !
 ! R12   R(11,12)                1.0982         estimate D2E/DX2                !
 ! R13   R(11,13)                1.0988         estimate D2E/DX2                !
 ! R14   R(11,14)                1.4773         estimate D2E/DX2                !
 ! R15   R(14,15)                1.4647         estimate D2E/DX2                !
 ! R16   R(14,19)                1.4656         estimate D2E/DX2                !
 ! R17   R(15,16)                1.0957         estimate D2E/DX2                !
 ! R18   R(15,17)                1.0958         estimate D2E/DX2                !
 ! R19   R(15,18)                1.0943         estimate D2E/DX2                !
 ! R20   R(19,20)                1.0963         estimate D2E/DX2                !
 ! R21   R(19,21)                1.0952         estimate D2E/DX2                !
 ! R22   R(19,22)                1.0965         estimate D2E/DX2                !
 ! R23   R(23,24)                1.0955         estimate D2E/DX2                !
 ! R24   R(23,25)                1.0955         estimate D2E/DX2                !
 ! R25   R(23,26)                1.0938         estimate D2E/DX2                !
 ! A1    A(1,2,3)              116.5884         estimate D2E/DX2                !
 ! A2    A(1,2,4)              122.5905         estimate D2E/DX2                !
 ! A3    A(3,2,4)              120.821          estimate D2E/DX2                !
 ! A4    A(2,4,5)              122.5606         estimate D2E/DX2                !
 ! A5    A(2,4,23)             120.7957         estimate D2E/DX2                !
 ! A6    A(5,4,23)             116.6428         estimate D2E/DX2                !
 ! A7    A(4,5,6)              122.8989         estimate D2E/DX2                !
 ! A8    A(4,5,7)              112.1171         estimate D2E/DX2                !
 ! A9    A(6,5,7)              124.9822         estimate D2E/DX2                !
 ! A10   A(5,7,8)              112.8365         estimate D2E/DX2                !
 ! A11   A(7,8,9)              109.2714         estimate D2E/DX2                !
 ! A12   A(7,8,10)             107.9516         estimate D2E/DX2                !
 ! A13   A(7,8,11)             110.0505         estimate D2E/DX2                !
 ! A14   A(9,8,10)             109.705          estimate D2E/DX2                !
 ! A15   A(9,8,11)             109.6756         estimate D2E/DX2                !
 ! A16   A(10,8,11)            110.1594         estimate D2E/DX2                !
 ! A17   A(8,11,12)            109.3838         estimate D2E/DX2                !
 ! A18   A(8,11,13)            107.2699         estimate D2E/DX2                !
 ! A19   A(8,11,14)            113.9771         estimate D2E/DX2                !
 ! A20   A(12,11,13)           105.6596         estimate D2E/DX2                !
 ! A21   A(12,11,14)           111.073          estimate D2E/DX2                !
 ! A22   A(13,11,14)           109.0746         estimate D2E/DX2                !
 ! A23   A(11,14,15)           112.307          estimate D2E/DX2                !
 ! A24   A(11,14,19)           110.3738         estimate D2E/DX2                !
 ! A25   A(15,14,19)           109.4313         estimate D2E/DX2                !
 ! A26   A(14,15,16)           112.0907         estimate D2E/DX2                !
 ! A27   A(14,15,17)           110.6011         estimate D2E/DX2                !
 ! A28   A(14,15,18)           111.3712         estimate D2E/DX2                !
 ! A29   A(16,15,17)           108.4045         estimate D2E/DX2                !
 ! A30   A(16,15,18)           108.6716         estimate D2E/DX2                !
 ! A31   A(17,15,18)           105.4376         estimate D2E/DX2                !
 ! A32   A(14,19,20)           112.113          estimate D2E/DX2                !
 ! A33   A(14,19,21)           110.8641         estimate D2E/DX2                !
 ! A34   A(14,19,22)           110.4679         estimate D2E/DX2                !
 ! A35   A(20,19,21)           108.5235         estimate D2E/DX2                !
 ! A36   A(20,19,22)           108.1478         estimate D2E/DX2                !
 ! A37   A(21,19,22)           106.5211         estimate D2E/DX2                !
 ! A38   A(4,23,24)            110.4317         estimate D2E/DX2                !
 ! A39   A(4,23,25)            110.3198         estimate D2E/DX2                !
 ! A40   A(4,23,26)            113.0692         estimate D2E/DX2                !
 ! A41   A(24,23,25)           108.559          estimate D2E/DX2                !
 ! A42   A(24,23,26)           107.1756         estimate D2E/DX2                !
 ! A43   A(25,23,26)           107.1086         estimate D2E/DX2                !
 ! D1    D(1,2,4,5)             -0.1808         estimate D2E/DX2                !
 ! D2    D(1,2,4,23)          -179.8136         estimate D2E/DX2                !
 ! D3    D(3,2,4,5)            179.6914         estimate D2E/DX2                !
 ! D4    D(3,2,4,23)             0.0586         estimate D2E/DX2                !
 ! D5    D(2,4,5,6)             -0.0009         estimate D2E/DX2                !
 ! D6    D(2,4,5,7)            179.5177         estimate D2E/DX2                !
 ! D7    D(23,4,5,6)           179.6461         estimate D2E/DX2                !
 ! D8    D(23,4,5,7)            -0.8353         estimate D2E/DX2                !
 ! D9    D(2,4,23,24)          -60.5673         estimate D2E/DX2                !
 ! D10   D(2,4,23,25)           59.4418         estimate D2E/DX2                !
 ! D11   D(2,4,23,26)          179.3549         estimate D2E/DX2                !
 ! D12   D(5,4,23,24)          119.7791         estimate D2E/DX2                !
 ! D13   D(5,4,23,25)         -120.2119         estimate D2E/DX2                !
 ! D14   D(5,4,23,26)           -0.2988         estimate D2E/DX2                !
 ! D15   D(4,5,7,8)           -149.505          estimate D2E/DX2                !
 ! D16   D(6,5,7,8)             30.0017         estimate D2E/DX2                !
 ! D17   D(5,7,8,9)            -60.0015         estimate D2E/DX2                !
 ! D18   D(5,7,8,10)            59.2569         estimate D2E/DX2                !
 ! D19   D(5,7,8,11)           179.5144         estimate D2E/DX2                !
 ! D20   D(7,8,11,12)         -174.9949         estimate D2E/DX2                !
 ! D21   D(7,8,11,13)          -60.8508         estimate D2E/DX2                !
 ! D22   D(7,8,11,14)           60.0007         estimate D2E/DX2                !
 ! D23   D(9,8,11,12)           64.7649         estimate D2E/DX2                !
 ! D24   D(9,8,11,13)          178.909          estimate D2E/DX2                !
 ! D25   D(9,8,11,14)          -60.2394         estimate D2E/DX2                !
 ! D26   D(10,8,11,12)         -56.0806         estimate D2E/DX2                !
 ! D27   D(10,8,11,13)          58.0635         estimate D2E/DX2                !
 ! D28   D(10,8,11,14)         178.915          estimate D2E/DX2                !
 ! D29   D(8,11,14,15)          60.0017         estimate D2E/DX2                !
 ! D30   D(8,11,14,19)        -177.59           estimate D2E/DX2                !
 ! D31   D(12,11,14,15)        -64.0987         estimate D2E/DX2                !
 ! D32   D(12,11,14,19)         58.3095         estimate D2E/DX2                !
 ! D33   D(13,11,14,15)        179.8413         estimate D2E/DX2                !
 ! D34   D(13,11,14,19)        -57.7504         estimate D2E/DX2                !
 ! D35   D(11,14,15,16)         57.672          estimate D2E/DX2                !
 ! D36   D(11,14,15,17)        178.7752         estimate D2E/DX2                !
 ! D37   D(11,14,15,18)        -64.3228         estimate D2E/DX2                !
 ! D38   D(19,14,15,16)        -65.2682         estimate D2E/DX2                !
 ! D39   D(19,14,15,17)         55.8349         estimate D2E/DX2                !
 ! D40   D(19,14,15,18)        172.7369         estimate D2E/DX2                !
 ! D41   D(11,14,19,20)        -62.0028         estimate D2E/DX2                !
 ! D42   D(11,14,19,21)         59.4536         estimate D2E/DX2                !
 ! D43   D(11,14,19,22)        177.2992         estimate D2E/DX2                !
 ! D44   D(15,14,19,20)         62.0782         estimate D2E/DX2                !
 ! D45   D(15,14,19,21)       -176.4654         estimate D2E/DX2                !
 ! D46   D(15,14,19,22)        -58.6198         estimate D2E/DX2                !
 --------------------------------------------------------------------------------
 Trust Radius=3.00D-01 FncErr=1.00D-07 GrdErr=1.00D-06 EigMax=2.50D+02 EigMin=1.00D-04
 Number of steps in this run=    124 maximum allowed number of steps=    156.
 GradGradGradGradGradGradGradGradGradGradGradGradGradGradGradGradGradGrad

                          Input orientation:                          
 ---------------------------------------------------------------------
 Center     Atomic      Atomic             Coordinates (Angstroms)
 Number     Number       Type             X           Y           Z
 ---------------------------------------------------------------------
      1          1           0        4.605400   -1.774500    1.029200
      2          6           0        3.944100   -0.916000    1.107800
      3          1           0        4.418700    0.054300    1.225000
      4          6           0        2.606500   -1.026700    1.062200
      5          6           0        1.914400   -2.338200    0.895700
      6          8           0        2.514400   -3.395600    0.790000
      7          8           0        0.559100   -2.205400    0.888100
      8          6           0       -0.117300   -3.357800    1.417600
      9          1           0        0.138000   -4.236300    0.813800
     10          1           0        0.223900   -3.505800    2.447400
     11          6           0       -1.638200   -3.135100    1.390200
     12          1           0       -2.139400   -3.981800    1.878000
     13          1           0       -1.851300   -2.260900    2.020900
     14          7           0       -2.186300   -2.900400    0.038600
     15          6           0       -1.937400   -4.025700   -0.865400
     16          1           0       -2.354500   -4.963100   -0.481000
     17          1           0       -2.373600   -3.831700   -1.851700
     18          1           0       -0.866700   -4.165400   -1.042800
     19          6           0       -3.627100   -2.641900    0.110100
     20          1           0       -4.180000   -3.496500    0.517400
     21          1           0       -3.835600   -1.764500    0.731500
     22          1           0       -4.026800   -2.420200   -0.886600
     23          6           0        1.730200    0.188300    1.170700
     24          1           0        1.894200    0.693800    2.128700
     25          1           0        1.954400    0.892500    0.362000
     26          1           0        0.663600   -0.045500    1.107300
 ---------------------------------------------------------------------
                    Distance matrix (angstroms):
                    1          2          3          4          5
     1  H    0.000000
     2  C    1.086516   0.000000
     3  H    1.848703   1.086491   0.000000
     4  C    2.134454   1.342947   2.116396   0.000000
     5  C    2.752646   2.487433   3.479082   1.492232   0.000000
     6  O    2.656589   2.879836   3.964517   2.386265   1.220355
     7  O    4.071625   3.628918   4.485115   2.368859   1.361812
     8  C    4.996157   4.749035   5.679332   3.602697   2.332331
     9  H    5.105342   5.059370   6.074761   4.056689   2.600978
    10  H    4.919983   4.726678   5.636038   3.706953   2.574656
    11  C    6.400320   6.013836   6.847306   4.750833   3.674309
    12  H    7.147374   6.855750   7.728207   5.649930   4.483261
    13  H    6.550498   6.019067   6.731011   4.723805   3.930973
    14  N    6.955295   6.531679   7.332382   5.246851   4.226870
    15  C    7.173956   6.939438   7.836848   5.775523   4.559111
    16  H    7.803082   7.653474   8.600057   6.518300   5.197010
    17  H    7.825477   7.561301   8.408473   6.415624   5.307136
    18  H    6.320875   6.190919   7.133319   5.132795   3.851098
    19  C    8.328937   7.829253   8.558469   6.509465   5.605143
    20  H    8.967189   8.544504   9.329872   7.242465   6.215021
    21  H    8.446254   7.834876   8.466702   6.492639   5.780882
    22  H    8.865782   8.353173   9.050330   7.052683   6.203320
    23  C    3.484161   2.474831   2.692385   1.501965   2.548089
    24  H    3.827794   2.799247   2.756580   2.145906   3.273182
    25  H    3.819142   2.790304   2.742284   2.144491   3.274730
    26  H    4.305035   3.394032   3.758269   2.177073   2.620257
                    6          7          8          9         10
     6  O    0.000000
     7  O    2.291156   0.000000
     8  C    2.705763   1.437328   0.000000
     9  H    2.520837   2.075428   1.096136   0.000000
    10  H    2.829401   2.057867   1.094902   1.791552   0.000000
    11  C    4.203830   2.438150   1.537362   2.167894   2.173133
    12  H    4.815104   3.378965   2.165694   2.526627   2.477091
    13  H    4.675681   2.663896   2.138672   3.052312   2.457261
    14  N    4.786064   2.956670   2.528165   2.790687   3.460909
    15  C    4.791231   3.552572   2.995153   2.677938   3.989506
    16  H    5.270549   4.238916   3.344658   2.901259   4.165021
    17  H    5.573267   4.330368   4.000474   3.684661   5.033436
    18  H    3.922191   3.098851   2.695809   2.112206   3.715639
    19  C    6.224817   4.280197   3.813236   4.148889   4.586883
    20  H    6.700708   4.925792   4.163548   4.390932   4.808256
    21  H    6.556402   4.419537   4.103059   4.680392   4.738774
    22  H    6.822733   4.922010   4.633856   4.851303   5.510221
    23  C    3.688393   2.679764   4.006125   4.715884   4.188708
    24  H    4.347408   3.424462   4.579002   5.396210   4.530796
    25  H    4.345640   3.438114   4.844717   5.459672   5.166098
    26  H    3.840483   2.173508   3.417224   4.233817   3.736694
                   11         12         13         14         15
    11  C    0.000000
    12  H    1.098204   0.000000
    13  H    1.098827   1.750691   0.000000
    14  N    1.477268   2.134249   2.109668   0.000000
    15  C    2.443444   2.751177   3.384178   1.464741   0.000000
    16  H    2.712206   2.564001   3.716800   2.133778   1.095653
    17  H    3.396466   3.740059   4.211560   2.115570   1.095762
    18  H    2.752493   3.191324   3.739360   2.123910   1.094251
    19  C    2.416118   2.670965   2.636244   1.465551   2.391984
    20  H    2.711667   2.500159   3.034809   2.135281   2.687274
    21  H    2.672264   3.017942   2.417935   2.119096   3.356528
    22  H    3.376435   3.693763   3.634795   2.115190   2.635085
    23  C    4.737012   5.732697   4.421376   5.114752   5.945989
    24  H    5.261531   6.180131   4.771860   5.825571   6.776391
    25  H    5.494136   6.543413   5.213371   5.624595   6.390721
    26  H    3.863152   4.893388   3.473814   4.173069   5.147693
                   16         17         18         19         20
    16  H    0.000000
    17  H    1.777428   0.000000
    18  H    1.779183   1.742533   0.000000
    19  C    2.712357   2.614488   3.357088   0.000000
    20  H    2.545617   2.998012   3.722849   1.096327   0.000000
    21  H    3.727580   3.617137   4.210324   1.095190   1.778841
    22  H    3.070413   2.378407   3.613358   1.096504   1.775699
    23  C    6.778629   6.491262   5.531562   6.151062   6.995357
    24  H    7.540723   7.384975   6.425948   6.759171   7.553198
    25  H    7.318833   6.778652   5.959398   6.611246   7.544424
    26  H    5.984515   5.684679   4.892681   5.113297   5.976441
                   21         22         23         24         25
    21  H    0.000000
    22  H    1.756345   0.000000
    23  C    5.914766   6.646789   0.000000
    24  H    6.389524   7.338070   1.095532   0.000000
    25  H    6.381244   6.950377   1.095518   1.778858   0.000000
    26  H    4.831044   5.622694   1.093763   1.761874   1.761102
                   26
    26  H    0.000000
 Stoichiometry    C8H15NO2
 Framework group  C1[X(C8H15NO2)]
 Deg. of freedom    72
 Full point group                 C1      NOp   1
 Largest Abelian subgroup         C1      NOp   1
 Largest concise Abelian subgroup C1      NOp   1
                         Standard orientation:                         
 ---------------------------------------------------------------------
 Center     Atomic      Atomic             Coordinates (Angstroms)
 Number     Number       Type             X           Y           Z
 ---------------------------------------------------------------------
      1          1           0        4.305311   -1.036198   -0.287227
      2          6           0        4.007160    0.008571   -0.278253
      3          1           0        4.802338    0.742080   -0.378852
      4          6           0        2.726961    0.394414   -0.152856
      5          6           0        1.604128   -0.579292   -0.019066
      6          8           0        1.771969   -1.788042   -0.014510
      7          8           0        0.398692    0.042046    0.105005
      8          6           0       -0.538738   -0.711205    0.892247
      9          1           0       -0.709302   -1.684702    0.418195
     10          1           0       -0.104553   -0.855949    1.886904
     11          6           0       -1.868942    0.051863    1.000724
     12          1           0       -2.545208   -0.488734    1.676349
     13          1           0       -1.656476    1.008906    1.497057
     14          7           0       -2.517238    0.316128   -0.300120
     15          6           0       -2.829467   -0.916963   -1.026389
     16          1           0       -3.476886   -1.584047   -0.446472
     17          1           0       -3.328064   -0.689790   -1.975329
     18          1           0       -1.919715   -1.460860   -1.298256
     19          6           0       -3.744660    1.093982   -0.109813
     20          1           0       -4.484738    0.555967    0.494138
     21          1           0       -3.528380    2.051220    0.376356
     22          1           0       -4.201662    1.332064   -1.077692
     23          6           0        2.359543    1.850742   -0.149596
     24          1           0        2.845870    2.365993    0.685984
     25          1           0        2.677366    2.325370   -1.084409
     26          1           0        1.283555    2.021074   -0.051852
 ---------------------------------------------------------------------
 Rotational constants (GHZ):           2.3131962           0.4896094           0.4433651
 Standard basis: 6-311++G(d,p) (5D, 7F)
 There are   358 symmetry adapted cartesian basis functions of A   symmetry.
 There are   347 symmetry adapted basis functions of A   symmetry.
   347 basis functions,   531 primitive gaussians,   358 cartesian basis functions
    43 alpha electrons       43 beta electrons
       nuclear repulsion energy       632.7105987240 Hartrees.
 NAtoms=   26 NActive=   26 NUniq=   26 SFac= 1.00D+00 NAtFMM=   60 NAOKFM=F Big=F
 Integral buffers will be    131072 words long.
 Raffenetti 2 integral format.
 Two-electron integral symmetry is turned on.
 Nuclear repulsion after empirical dispersion term =      632.6721548712 Hartrees.
 One-electron integrals computed using PRISM.
 NBasis=   347 RedAO= T EigKep=  7.81D-06  NBF=   347
 NBsUse=   347 1.00D-06 EigRej= -1.00D+00 NBFU=   347
 ExpMin= 3.60D-02 ExpMax= 8.59D+03 ExpMxC= 1.30D+03 IAcc=3 IRadAn=         5 AccDes= 0.00D+00
 Harris functional with IExCor=  402 and IRadAn=       5 diagonalized for initial guess.
 HarFok:  IExCor=  402 AccDes= 0.00D+00 IRadAn=         5 IDoV= 1 UseB2=F ITyADJ=14
 ICtDFT=  3500011 ScaDFX=  1.000000  1.000000  1.000000  1.000000
 FoFCou: FMM=F IPFlag=           0 FMFlag=      100000 FMFlg1=           0
         NFxFlg=           0 DoJE=T BraDBF=F KetDBF=T FulRan=T
         wScrn=  0.000000 ICntrl=       500 IOpCl=  0 I1Cent=   200000004 NGrid=           0
         NMat0=    1 NMatS0=      1 NMatT0=    0 NMatD0=    1 NMtDS0=    0 NMtDT0=    0
 Petite list used in FoFCou.
 Requested convergence on RMS density matrix=1.00D-08 within 128 cycles.
 Requested convergence on MAX density matrix=1.00D-06.
 Requested convergence on             energy=1.00D-06.
 No special actions if energy rises.
 SCF Done:  E(RB3LYP) =  -519.238208506     A.U. after   14 cycles
            NFock= 14  Conv=0.41D-08     -V/T= 2.0045
 SCF density gives NOpUse=  1 NOpAll=  1.

 **********************************************************************

            Population analysis using the SCF density.

 **********************************************************************

 Orbital symmetries:
 BldTbl:  Degeneracy threshold= 1.00D-02
       Occupied  (A) (A) (A) (A) (A) (A) (A) (A) (A) (A) (A) (A)
                 (A) (A) (A) (A) (A) (A) (A) (A) (A) (A) (A) (A)
                 (A) (A) (A) (A) (A) (A) (A) (A) (A) (A) (A) (A)
                 (A) (A) (A) (A) (A) (A) (A)
       Virtual   (A) (A) (A) (A) (A) (A) (A) (A) (A) (A) (A) (A)
                 (A) (A) (A) (A) (A) (A) (A) (A) (A) (A) (A) (A)
                 (A) (A) (A) (A) (A) (A) (A) (A) (A) (A) (A) (A)
                 (A) (A) (A) (A) (A) (A) (A) (A) (A) (A) (A) (A)
                 (A) (A) (A) (A) (A) (A) (A) (A) (A) (A) (A) (A)
                 (A) (A) (A) (A) (A) (A) (A) (A) (A) (A) (A) (A)
                 (A) (A) (A) (A) (A) (A) (A) (A) (A) (A) (A) (A)
                 (A) (A) (A) (A) (A) (A) (A) (A) (A) (A) (A) (A)
                 (A) (A) (A) (A) (A) (A) (A) (A) (A) (A) (A) (A)
                 (A) (A) (A) (A) (A) (A) (A) (A) (A) (A) (A) (A)
                 (A) (A) (A) (A) (A) (A) (A) (A) (A) (A) (A) (A)
                 (A) (A) (A) (A) (A) (A) (A) (A) (A) (A) (A) (A)
                 (A) (A) (A) (A) (A) (A) (A) (A) (A) (A) (A) (A)
                 (A) (A) (A) (A) (A) (A) (A) (A) (A) (A) (A) (A)
                 (A) (A) (A) (A) (A) (A) (A) (A) (A) (A) (A) (A)
                 (A) (A) (A) (A) (A) (A) (A) (A) (A) (A) (A) (A)
                 (A) (A) (A) (A) (A) (A) (A) (A) (A) (A) (A) (A)
                 (A) (A) (A) (A) (A) (A) (A) (A) (A) (A) (A) (A)
                 (A) (A) (A) (A) (A) (A) (A) (A) (A) (A) (A) (A)
                 (A) (A) (A) (A) (A) (A) (A) (A) (A) (A) (A) (A)
                 (A) (A) (A) (A) (A) (A) (A) (A) (A) (A) (A) (A)
                 (A) (A) (A) (A) (A) (A) (A) (A) (A) (A) (A) (A)
                 (A) (A) (A) (A) (A) (A) (A) (A) (A) (A) (A) (A)
                 (A) (A) (A) (A) (A) (A) (A) (A) (A) (A) (A) (A)
                 (A) (A) (A) (A) (A) (A) (A) (A) (A) (A) (A) (A)
                 (A) (A) (A) (A)
 The electronic state is 1-A.
 Alpha  occ. eigenvalues --  -19.16982 -19.11305 -14.31493 -10.30592 -10.23610
 Alpha  occ. eigenvalues --  -10.20842 -10.19845 -10.19181 -10.18998 -10.18436
 Alpha  occ. eigenvalues --  -10.16500  -1.10808  -1.02232  -0.92695  -0.81909
 Alpha  occ. eigenvalues --   -0.76935  -0.71082  -0.69550  -0.67840  -0.62889
 Alpha  occ. eigenvalues --   -0.58526  -0.55827  -0.51046  -0.49992  -0.48358
 Alpha  occ. eigenvalues --   -0.47361  -0.46796  -0.45354  -0.43658  -0.42691
 Alpha  occ. eigenvalues --   -0.41163  -0.40478  -0.40182  -0.38938  -0.38759
 Alpha  occ. eigenvalues --   -0.37456  -0.36671  -0.36526  -0.34653  -0.30823
 Alpha  occ. eigenvalues --   -0.28102  -0.27215  -0.22764
 Alpha virt. eigenvalues --   -0.06444  -0.01262  -0.00141   0.00681   0.00928
 Alpha virt. eigenvalues --    0.01897   0.02499   0.02990   0.03556   0.03738
 Alpha virt. eigenvalues --    0.04031   0.04499   0.05025   0.05595   0.06354
 Alpha virt. eigenvalues --    0.07004   0.07404   0.07696   0.08284   0.09001
 Alpha virt. eigenvalues --    0.09379   0.09873   0.10407   0.10641   0.10914
 Alpha virt. eigenvalues --    0.11354   0.11537   0.12063   0.12617   0.12808
 Alpha virt. eigenvalues --    0.13008   0.13310   0.13865   0.14249   0.14418
 Alpha virt. eigenvalues --    0.14704   0.14997   0.15283   0.15761   0.16056
 Alpha virt. eigenvalues --    0.16249   0.16579   0.17231   0.17864   0.18302
 Alpha virt. eigenvalues --    0.18463   0.18948   0.19910   0.19922   0.20287
 Alpha virt. eigenvalues --    0.20830   0.21508   0.22170   0.22453   0.22639
 Alpha virt. eigenvalues --    0.23951   0.24678   0.24900   0.25299   0.25945
 Alpha virt. eigenvalues --    0.26280   0.26665   0.27509   0.27797   0.28700
 Alpha virt. eigenvalues --    0.29175   0.29765   0.30383   0.30982   0.31473
 Alpha virt. eigenvalues --    0.32204   0.32918   0.33526   0.33727   0.34669
 Alpha virt. eigenvalues --    0.35234   0.35819   0.36772   0.37068   0.37623
 Alpha virt. eigenvalues --    0.39544   0.41606   0.41714   0.42890   0.44118
 Alpha virt. eigenvalues --    0.46109   0.47056   0.49486   0.50000   0.51238
 Alpha virt. eigenvalues --    0.51953   0.53167   0.54500   0.55924   0.56076
 Alpha virt. eigenvalues --    0.57324   0.57741   0.59677   0.59907   0.60759
 Alpha virt. eigenvalues --    0.61151   0.62460   0.63778   0.64166   0.64547
 Alpha virt. eigenvalues --    0.66176   0.66362   0.67139   0.68292   0.68691
 Alpha virt. eigenvalues --    0.69514   0.70576   0.71825   0.72534   0.73591
 Alpha virt. eigenvalues --    0.73705   0.74096   0.74735   0.75122   0.76779
 Alpha virt. eigenvalues --    0.77450   0.79339   0.80193   0.84894   0.86606
 Alpha virt. eigenvalues --    0.87506   0.88501   0.90213   0.92336   0.95222
 Alpha virt. eigenvalues --    0.95985   0.97857   0.98664   1.01189   1.02541
 Alpha virt. eigenvalues --    1.05368   1.05864   1.07699   1.07786   1.09876
 Alpha virt. eigenvalues --    1.12168   1.13747   1.17049   1.17637   1.20487
 Alpha virt. eigenvalues --    1.22694   1.25003   1.26396   1.28150   1.32023
 Alpha virt. eigenvalues --    1.33428   1.36289   1.41307   1.43597   1.44000
 Alpha virt. eigenvalues --    1.44590   1.45264   1.46834   1.48183   1.48495
 Alpha virt. eigenvalues --    1.49329   1.50270   1.51615   1.53706   1.54674
 Alpha virt. eigenvalues --    1.56579   1.56944   1.58083   1.59375   1.59915
 Alpha virt. eigenvalues --    1.60908   1.62206   1.63857   1.65241   1.66785
 Alpha virt. eigenvalues --    1.67023   1.68082   1.69499   1.71301   1.71883
 Alpha virt. eigenvalues --    1.72143   1.72785   1.74424   1.75718   1.76910
 Alpha virt. eigenvalues --    1.78476   1.80863   1.81354   1.81919   1.83399
 Alpha virt. eigenvalues --    1.85740   1.88490   1.89256   1.96264   1.97603
 Alpha virt. eigenvalues --    2.00452   2.02651   2.02833   2.04635   2.05099
 Alpha virt. eigenvalues --    2.06630   2.08103   2.09705   2.12516   2.13599
 Alpha virt. eigenvalues --    2.16884   2.17569   2.19898   2.22073   2.25246
 Alpha virt. eigenvalues --    2.27795   2.29917   2.31711   2.33877   2.40809
 Alpha virt. eigenvalues --    2.43288   2.43808   2.45159   2.47656   2.48731
 Alpha virt. eigenvalues --    2.50064   2.50619   2.51938   2.53724   2.54615
 Alpha virt. eigenvalues --    2.54991   2.56177   2.56523   2.58708   2.59747
 Alpha virt. eigenvalues --    2.61557   2.63190   2.65065   2.65684   2.66743
 Alpha virt. eigenvalues --    2.67188   2.69198   2.69731   2.73504   2.75339
 Alpha virt. eigenvalues --    2.76071   2.78051   2.78807   2.79827   2.82269
 Alpha virt. eigenvalues --    2.84537   2.86253   2.87157   2.91305   2.94533
 Alpha virt. eigenvalues --    2.95304   2.97734   3.02212   3.02382   3.05611
 Alpha virt. eigenvalues --    3.07188   3.10420   3.11523   3.17581   3.22793
 Alpha virt. eigenvalues --    3.26127   3.29020   3.33658   3.36634   3.52188
 Alpha virt. eigenvalues --    3.54310   3.56811   3.62839   3.71014   3.71882
 Alpha virt. eigenvalues --    3.76196   3.77236   3.78129   3.79109   3.79445
 Alpha virt. eigenvalues --    3.81428   3.81446   3.82391   3.84099   4.03678
 Alpha virt. eigenvalues --    4.11200   4.16852   4.27501   4.31878   4.33343
 Alpha virt. eigenvalues --    4.84736   4.85873   5.07407   5.08635   5.22090
 Alpha virt. eigenvalues --    5.40762   5.66491   5.85841  23.71760  23.83038
 Alpha virt. eigenvalues --   23.83801  23.88655  23.93923  23.96081  23.98077
 Alpha virt. eigenvalues --   24.20868  35.51355  49.91503  50.02312
          Condensed to atoms (all electrons):
               1          2          3          4          5          6
     1  H    0.471136   0.343755  -0.022038  -0.002839   0.014409  -0.002850
     2  C    0.343755   6.815011   0.403315  -0.254437  -0.337402   0.050196
     3  H   -0.022038   0.403315   0.523511  -0.065598   0.010631   0.000001
     4  C   -0.002839  -0.254437  -0.065598   8.996959  -2.897791  -0.024462
     5  C    0.014409  -0.337402   0.010631  -2.897791   9.428408   0.367245
     6  O   -0.002850   0.050196   0.000001  -0.024462   0.367245   8.059363
     7  O   -0.002594   0.012339  -0.003256  -0.554882   0.249006  -0.132581
     8  C   -0.005228  -0.059933   0.002208  -0.271392  -0.090280  -0.067409
     9  H    0.000979  -0.006659  -0.000281  -0.010027   0.018853  -0.000322
    10  H   -0.000627  -0.006266   0.000375   0.016010  -0.023786  -0.008607
    11  C    0.000228   0.054267  -0.001321  -0.054730   0.114744   0.026124
    12  H   -0.000039   0.003306  -0.000038   0.014645  -0.022223   0.003235
    13  H    0.000141  -0.004729   0.000064  -0.007954   0.022504  -0.001602
    14  N    0.000156   0.000356  -0.000054   0.028602  -0.005949  -0.000119
    15  C    0.000109   0.000034  -0.000029  -0.001294  -0.001109   0.003737
    16  H    0.000005  -0.000228   0.000010   0.005380  -0.001816   0.000466
    17  H    0.000031   0.000314  -0.000011   0.002569  -0.001205   0.000596
    18  H   -0.000417   0.000843  -0.000015  -0.046219   0.009788  -0.010796
    19  C    0.000054   0.001753   0.000004   0.007850   0.015022   0.000798
    20  H   -0.000004  -0.000089  -0.000004  -0.001268  -0.002191  -0.000168
    21  H    0.000007  -0.000231  -0.000002  -0.000106   0.000569   0.000050
    22  H   -0.000003   0.000060  -0.000003  -0.000138  -0.000119  -0.000012
    23  C    0.010620  -0.584503  -0.004106   0.199274  -0.236742  -0.007492
    24  H   -0.001298   0.028662   0.000910  -0.048356  -0.004921   0.000598
    25  H   -0.000891   0.014018  -0.000064  -0.052921  -0.024547  -0.000713
    26  H   -0.001412   0.013359   0.004240   0.030450  -0.070449   0.002351
               7          8          9         10         11         12
     1  H   -0.002594  -0.005228   0.000979  -0.000627   0.000228  -0.000039
     2  C    0.012339  -0.059933  -0.006659  -0.006266   0.054267   0.003306
     3  H   -0.003256   0.002208  -0.000281   0.000375  -0.001321  -0.000038
     4  C   -0.554882  -0.271392  -0.010027   0.016010  -0.054730   0.014645
     5  C    0.249006  -0.090280   0.018853  -0.023786   0.114744  -0.022223
     6  O   -0.132581  -0.067409  -0.000322  -0.008607   0.026124   0.003235
     7  O    8.332226   0.288125  -0.054400  -0.037395  -0.087226   0.023770
     8  C    0.288125   6.643453   0.339263   0.447307  -0.628808  -0.062333
     9  H   -0.054400   0.339263   0.554830  -0.053074   0.004690  -0.030458
    10  H   -0.037395   0.447307  -0.053074   0.572932  -0.069858   0.020429
    11  C   -0.087226  -0.628808   0.004690  -0.069858   6.465728   0.424251
    12  H    0.023770  -0.062333  -0.030458   0.020429   0.424251   0.676595
    13  H   -0.016159  -0.071600   0.019408  -0.019424   0.414541  -0.075987
    14  N    0.009069   0.031292  -0.009135  -0.005000   0.073914  -0.149578
    15  C   -0.009821  -0.045018   0.025938  -0.012971  -0.156669   0.006493
    16  H    0.001563   0.073468  -0.017384   0.004801  -0.073985   0.039624
    17  H   -0.003037  -0.013882   0.003292  -0.000945   0.027925  -0.003875
    18  H    0.011060  -0.029843  -0.003969   0.003933   0.054050   0.002731
    19  C    0.000264  -0.124229   0.006344  -0.005221  -0.074931  -0.014709
    20  H    0.001413   0.004935  -0.001602   0.001787  -0.010687   0.033092
    21  H   -0.000848   0.002546   0.000725  -0.000253   0.017095  -0.005024
    22  H    0.000885  -0.005848  -0.000243   0.000496   0.017739  -0.000971
    23  C   -0.041890  -0.011675   0.014346  -0.010034  -0.053081  -0.008237
    24  H    0.004220   0.002010  -0.000862   0.002201   0.002783   0.000151
    25  H    0.003676   0.001665  -0.000217  -0.000205   0.000318   0.000012
    26  H   -0.023784   0.003534  -0.000481  -0.000698  -0.017085   0.000873
              13         14         15         16         17         18
     1  H    0.000141   0.000156   0.000109   0.000005   0.000031  -0.000417
     2  C   -0.004729   0.000356   0.000034  -0.000228   0.000314   0.000843
     3  H    0.000064  -0.000054  -0.000029   0.000010  -0.000011  -0.000015
     4  C   -0.007954   0.028602  -0.001294   0.005380   0.002569  -0.046219
     5  C    0.022504  -0.005949  -0.001109  -0.001816  -0.001205   0.009788
     6  O   -0.001602  -0.000119   0.003737   0.000466   0.000596  -0.010796
     7  O   -0.016159   0.009069  -0.009821   0.001563  -0.003037   0.011060
     8  C   -0.071600   0.031292  -0.045018   0.073468  -0.013882  -0.029843
     9  H    0.019408  -0.009135   0.025938  -0.017384   0.003292  -0.003969
    10  H   -0.019424  -0.005000  -0.012971   0.004801  -0.000945   0.003933
    11  C    0.414541   0.073914  -0.156669  -0.073985   0.027925   0.054050
    12  H   -0.075987  -0.149578   0.006493   0.039624  -0.003875   0.002731
    13  H    0.596191  -0.050557   0.009916  -0.006006  -0.000323  -0.003119
    14  N   -0.050557   6.895945   0.248954  -0.099954  -0.056921  -0.056776
    15  C    0.009916   0.248954   5.254487   0.393342   0.396431   0.409718
    16  H   -0.006006  -0.099954   0.393342   0.651714  -0.046576  -0.049141
    17  H   -0.000323  -0.056921   0.396431  -0.046576   0.564738  -0.024634
    18  H   -0.003119  -0.056776   0.409718  -0.049141  -0.024634   0.577676
    19  C    0.010265   0.272208  -0.154673  -0.029527   0.014286   0.005260
    20  H   -0.001420  -0.088154   0.000967   0.031896  -0.002238   0.000761
    21  H    0.004324  -0.060964   0.007391  -0.001719  -0.000210  -0.002413
    22  H   -0.001391  -0.060745   0.001805  -0.002151   0.004054   0.000408
    23  C    0.014003  -0.002343   0.004430  -0.000313  -0.000133  -0.003863
    24  H    0.000082  -0.000287  -0.000501   0.000050  -0.000065   0.000090
    25  H   -0.000439   0.000088   0.000065  -0.000032   0.000031   0.000308
    26  H   -0.003213   0.005097   0.001297   0.000367   0.000063  -0.001809
              19         20         21         22         23         24
     1  H    0.000054  -0.000004   0.000007  -0.000003   0.010620  -0.001298
     2  C    0.001753  -0.000089  -0.000231   0.000060  -0.584503   0.028662
     3  H    0.000004  -0.000004  -0.000002  -0.000003  -0.004106   0.000910
     4  C    0.007850  -0.001268  -0.000106  -0.000138   0.199274  -0.048356
     5  C    0.015022  -0.002191   0.000569  -0.000119  -0.236742  -0.004921
     6  O    0.000798  -0.000168   0.000050  -0.000012  -0.007492   0.000598
     7  O    0.000264   0.001413  -0.000848   0.000885  -0.041890   0.004220
     8  C   -0.124229   0.004935   0.002546  -0.005848  -0.011675   0.002010
     9  H    0.006344  -0.001602   0.000725  -0.000243   0.014346  -0.000862
    10  H   -0.005221   0.001787  -0.000253   0.000496  -0.010034   0.002201
    11  C   -0.074931  -0.010687   0.017095   0.017739  -0.053081   0.002783
    12  H   -0.014709   0.033092  -0.005024  -0.000971  -0.008237   0.000151
    13  H    0.010265  -0.001420   0.004324  -0.001391   0.014003   0.000082
    14  N    0.272208  -0.088154  -0.060964  -0.060745  -0.002343  -0.000287
    15  C   -0.154673   0.000967   0.007391   0.001805   0.004430  -0.000501
    16  H   -0.029527   0.031896  -0.001719  -0.002151  -0.000313   0.000050
    17  H    0.014286  -0.002238  -0.000210   0.004054  -0.000133  -0.000065
    18  H    0.005260   0.000761  -0.002413   0.000408  -0.003863   0.000090
    19  C    5.194181   0.366602   0.406117   0.416085  -0.002099   0.000070
    20  H    0.366602   0.656479  -0.056210  -0.050914  -0.000092  -0.000008
    21  H    0.406117  -0.056210   0.576030  -0.016837   0.001554  -0.000010
    22  H    0.416085  -0.050914  -0.016837   0.569001  -0.000293   0.000028
    23  C   -0.002099  -0.000092   0.001554  -0.000293   6.179168   0.371014
    24  H    0.000070  -0.000008  -0.000010   0.000028   0.371014   0.575196
    25  H   -0.000217   0.000027   0.000025  -0.000027   0.419149  -0.048317
    26  H   -0.002131  -0.000229  -0.000195   0.000012   0.390160  -0.030375
              25         26
     1  H   -0.000891  -0.001412
     2  C    0.014018   0.013359
     3  H   -0.000064   0.004240
     4  C   -0.052921   0.030450
     5  C   -0.024547  -0.070449
     6  O   -0.000713   0.002351
     7  O    0.003676  -0.023784
     8  C    0.001665   0.003534
     9  H   -0.000217  -0.000481
    10  H   -0.000205  -0.000698
    11  C    0.000318  -0.017085
    12  H    0.000012   0.000873
    13  H   -0.000439  -0.003213
    14  N    0.000088   0.005097
    15  C    0.000065   0.001297
    16  H   -0.000032   0.000367
    17  H    0.000031   0.000063
    18  H    0.000308  -0.001809
    19  C   -0.000217  -0.002131
    20  H    0.000027  -0.000229
    21  H    0.000025  -0.000195
    22  H   -0.000027   0.000012
    23  C    0.419149   0.390160
    24  H   -0.048317  -0.030375
    25  H    0.564975  -0.021179
    26  H   -0.021179   0.519107
 Mulliken charges:
               1
     1  H    0.198611
     2  C   -0.487112
     3  H    0.151552
     4  C    0.992676
     5  C   -0.530649
     6  O   -0.257624
     7  O    0.030259
     8  C   -0.352330
     9  H    0.200444
    10  H    0.184093
    11  C   -0.470014
    12  H    0.124267
    13  H    0.172484
    14  N    0.080854
    15  C   -0.383031
    16  H    0.126146
    17  H    0.139724
    18  H    0.156388
    19  C   -0.309426
    20  H    0.117318
    21  H    0.128590
    22  H    0.129122
    23  C   -0.636822
    24  H    0.146938
    25  H    0.145414
    26  H    0.202128
 Sum of Mulliken charges =  -0.00000
 Mulliken charges with hydrogens summed into heavy atoms:
               1
     2  C   -0.136950
     4  C    0.992676
     5  C   -0.530649
     6  O   -0.257624
     7  O    0.030259
     8  C    0.032207
    11  C   -0.173263
    14  N    0.080854
    15  C    0.039228
    19  C    0.065604
    23  C   -0.142342
 DipInt: DoE/N= T F RetVal/Mat= T F Init=T NMatP=  1 IDeriv=0 Min/MaxMlt=  0  4
 Entering OneElI...
 OneElI was handed 25769474560 working-precision words.
 Multipole integrals L=0 to 4 MinM= 0 MaxM= 0.
 Requested accuracy = 0.1000D-12
 ShPair: Thresh= 1.00D-13 NBox=     0 BxSize= 0.00D+00 RnKept= 1.76D+01
         NSMCal=                10011 NSMKep=                8931
 PrmmSu-InSpLW:  IPartL=    0 NPrtUS=    1 NPrtUL=    1 DoSpLW=F IThBeg=    0 IThEnd=    0 NThAct=    1.
 PrsmSu:  NPrtUS=   1 ThrOK=F IAlg=1 NPAlg=1 LenDen=           0 ISkipM=0 DoSpLW=F IThBeg=    0 IThEnd=    0.
 Prism:   IPart=     0 DynPar=F LinDyn=F Incr=          89.
 PRISM was handed 25768927518 working-precision words and  8931 shell-pairs
 IPart=  0 NShTot=        8931 NBatch=          91 AvBLen=        98.1
 PrsmSu-ThDecC:  IPartSL=    0    0 NPrtUSL=    1    1 IThBeg=    0 IThEnd=    0 CPU=   -1 GPU=   -1 NThAct=    1.
 PrSmSu:  NxtVal=             90.
 Electronic moments (au):
        -86.00000000         -0.44853550          0.67738525          0.40462054
      -2047.45097670       -404.40523032       -181.14169869          4.25107658
         -0.48097909          0.41712839        213.12828842       -157.78963230
        -40.49246129       -386.37845510      -1008.56262634        838.53313776
        399.04752230         66.58386005         70.45803355        167.96190056
     -87434.43159249      -5175.76807542      -1464.71985562       2312.42285013
       -542.54681287       -663.74631792         40.72338156       -193.89776090
        -45.28731337      -9350.52750400      -4032.64040826       -756.22615257
       -418.85035393       -138.73075052       -450.43107502
 Electronic spatial extent (au):  <R**2>=           2632.9979
 DipInt: DoE/N= F T RetVal/Mat= T F Init=T NMatP=  1 IDeriv=0 Min/MaxMlt=  0  4
 Nuclear    moments (au):
         86.00000000         -0.00000000         -0.00000000          0.00000000
       2002.42670635        350.02895481        130.82928970          0.00000000
         -0.00000000         -0.00000000       -183.15897150        171.51608697
         41.79086583        374.18553031       1026.99039539       -851.00517186
       -405.97006867        -69.99405787        -69.80116625       -170.43252975
      80355.78819252       3670.85547964        808.15882791      -2335.58547643
        557.39161701        676.43877458        -32.70282112        232.59025062
         41.69716317       7854.36617234       2650.54137735        411.90005046
        412.58675242        133.68462772        448.40572687
 Total      moments (au):
         -0.00000000         -0.44853550          0.67738525          0.40462054
        -45.02427034        -54.37627551        -50.31240899          4.25107658
         -0.48097909          0.41712839         29.96931693         13.72645467
          1.29840454        -12.19292479         18.42776905        -12.47203409
         -6.92254637         -3.41019782          0.65686730         -2.47062919
      -7078.64339997      -1504.91259578       -656.56102770        -23.16262629
         14.84480414         12.69245666          8.02056044         38.69248972
         -3.59015020      -1496.16133166      -1382.09903090       -344.32610211
         -6.26360151         -5.04612279         -2.02534814
 Traceless Quadrup. (au):
          4.88004794         -4.47195723         -0.40809071          4.25107658
         -0.48097909          0.41712839
 Charge=             -0.0000 electrons
 Dipole moment (field-independent basis, Debye):
    X=             -1.1401    Y=              1.7217    Z=              1.0284  Tot=              2.3069
 Quadrupole moment (field-independent basis, Debye-Ang):
   XX=            -60.5592   YY=            -73.1380   ZZ=            -67.6719
   XY=              5.7178   XZ=             -0.6469   YZ=              0.5611
 Traceless Quadrupole moment (field-independent basis, Debye-Ang):
   XX=              6.5638   YY=             -6.0149   ZZ=             -0.5489
   XY=              5.7178   XZ=             -0.6469   YZ=              0.5611
 Octapole moment (field-independent basis, Debye-Ang**2):
  XXX=             21.3310  YYY=              9.7700  ZZZ=              0.9242  XYY=             -8.6785
  XXY=             13.1162  XXZ=             -8.8771  XZZ=             -4.9272  YZZ=             -2.4272
  YYZ=              0.4675  XYZ=             -1.7585
 Hexadecapole moment (field-independent basis, Debye-Ang**3):
 XXXX=          -2666.1565 YYYY=           -566.8222 ZZZZ=           -247.2924 XXXY=             -8.7242
 XXXZ=              5.5913 YYYX=              4.7806 YYYZ=              3.0209 ZZZX=             14.5734
 ZZZY=             -1.3522 XXYY=           -563.5261 XXZZ=           -520.5648 YYZZ=           -129.6897
 XXYZ=             -2.3592 YYXZ=             -1.9006 ZZXY=             -0.7628
 N-N= 6.326721548712D+02 E-N=-2.476027295481D+03  KE= 5.169068279166D+02
 Entering OneElI...
 OneElI was handed 25769545553 working-precision words.
 Calculate electrostatic properties
    NBasis =   347  MinDer = 0  MaxDer = 0
    NGrid  =    26  NMatD  =   1
 Requested accuracy = 0.1000D-12
 ShPair: Thresh= 1.00D-13 NBox=     0 BxSize= 0.00D+00 RnKept= 1.76D+01
         NSMCal=                10011 NSMKep=                8364
 PrmmSu-InSpLW:  IPartL=    0 NPrtUS=   48 NPrtUL=    1 DoSpLW=F IThBeg=    0 IThEnd=   47 NThAct=   48.
 PrsmSu:  NPrtUS=  48 ThrOK=T IAlg=1 NPAlg=1 LenDen=           0 ISkipM=0 DoSpLW=F IThBeg=    0 IThEnd=   47.
 Prism:   IPart=     0 DynPar=F LinDyn=F Incr=          45.
 PRISM was handed   536699265 working-precision words and  8364 shell-pairs
 PRISM was handed   536699265 working-precision words and  8364 shell-pairs
 PRISM was handed   536699265 working-precision words and  8364 shell-pairs
 PRISM was handed   536699265 working-precision words and  8364 shell-pairs
 PRISM was handed   536699265 working-precision words and  8364 shell-pairs
 PRISM was handed   536699265 working-precision words and  8364 shell-pairs
 PRISM was handed   536699265 working-precision words and  8364 shell-pairs
 PRISM was handed   536699265 working-precision words and  8364 shell-pairs
 PRISM was handed   536699265 working-precision words and  8364 shell-pairs
 PRISM was handed   536699265 working-precision words and  8364 shell-pairs
 PRISM was handed   536699265 working-precision words and  8364 shell-pairs
 PRISM was handed   536699265 working-precision words and  8364 shell-pairs
 PRISM was handed   536699265 working-precision words and  8364 shell-pairs
 PRISM was handed   536699265 working-precision words and  8364 shell-pairs
 PRISM was handed   536699265 working-precision words and  8364 shell-pairs
 PRISM was handed   536699265 working-precision words and  8364 shell-pairs
 PRISM was handed   536699265 working-precision words and  8364 shell-pairs
 PRISM was handed   536699265 working-precision words and  8364 shell-pairs
 PRISM was handed   536699265 working-precision words and  8364 shell-pairs
 PRISM was handed   536699265 working-precision words and  8364 shell-pairs
 PRISM was handed   536699265 working-precision words and  8364 shell-pairs
 PRISM was handed   536699265 working-precision words and  8364 shell-pairs
 PRISM was handed   536699265 working-precision words and  8364 shell-pairs
 PRISM was handed   536699265 working-precision words and  8364 shell-pairs
 PRISM was handed   536699265 working-precision words and  8364 shell-pairs
 PRISM was handed   536699265 working-precision words and  8364 shell-pairs
 PRISM was handed   536699265 working-precision words and  8364 shell-pairs
 PRISM was handed   536699265 working-precision words and  8364 shell-pairs
 PRISM was handed   536699265 working-precision words and  8364 shell-pairs
 PRISM was handed   536699265 working-precision words and  8364 shell-pairs
 PRISM was handed   536699265 working-precision words and  8364 shell-pairs
 PRISM was handed   536699265 working-precision words and  8364 shell-pairs
 PRISM was handed   536699265 working-precision words and  8364 shell-pairs
 PRISM was handed   536699265 working-precision words and  8364 shell-pairs
 PRISM was handed   536699265 working-precision words and  8364 shell-pairs
 PRISM was handed   536699265 working-precision words and  8364 shell-pairs
 PRISM was handed   536699265 working-precision words and  8364 shell-pairs
 PRISM was handed   536699265 working-precision words and  8364 shell-pairs
 PRISM was handed   536699265 working-precision words and  8364 shell-pairs
 PRISM was handed   536699265 working-precision words and  8364 shell-pairs
 PRISM was handed   536699265 working-precision words and  8364 shell-pairs
 PRISM was handed   536699265 working-precision words and  8364 shell-pairs
 PRISM was handed   536699265 working-precision words and  8364 shell-pairs
 PRISM was handed   536699265 working-precision words and  8364 shell-pairs
 PRISM was handed   536699265 working-precision words and  8364 shell-pairs
 PRISM was handed   536699265 working-precision words and  8364 shell-pairs
 PRISM was handed   536699265 working-precision words and  8364 shell-pairs
 PRISM was handed   536699265 working-precision words and  8364 shell-pairs
 IPart= 23 NShTot=        4342 NBatch=         167 AvBLen=        26.0
 PrsmSu-ThDecC:  IPartSL=   23    0 NPrtUSL=   48    1 IThBeg=    0 IThEnd=   47 CPU=   -1 GPU=   -1 NThAct=   48.
 IPart= 31 NShTot=        4264 NBatch=         164 AvBLen=        26.0
 IPart= 45 NShTot=        4134 NBatch=         159 AvBLen=        26.0
 PrsmSu-ThDecC:  IPartSL=   31    0 NPrtUSL=   48    1 IThBeg=    0 IThEnd=   47 CPU=   -1 GPU=   -1 NThAct=   47.
 PrsmSu-ThDecC:  IPartSL=   45    0 NPrtUSL=   48    1 IThBeg=    0 IThEnd=   47 CPU=   -1 GPU=   -1 NThAct=   46.
 IPart= 42 NShTot=        4212 NBatch=         162 AvBLen=        26.0
 IPart= 39 NShTot=        4212 NBatch=         162 AvBLen=        26.0
 IPart= 29 NShTot=        4290 NBatch=         165 AvBLen=        26.0
 PrsmSu-ThDecC:  IPartSL=   42    0 NPrtUSL=   48    1 IThBeg=    0 IThEnd=   47 CPU=   -1 GPU=   -1 NThAct=   45.
 IPart= 19 NShTot=        4446 NBatch=         171 AvBLen=        26.0
 PrsmSu-ThDecC:  IPartSL=   29    0 NPrtUSL=   48    1 IThBeg=    0 IThEnd=   47 CPU=   -1 GPU=   -1 NThAct=   44.
 PrsmSu-ThDecC:  IPartSL=   19    0 NPrtUSL=   48    1 IThBeg=    0 IThEnd=   47 CPU=   -1 GPU=   -1 NThAct=   43.
 IPart= 34 NShTot=        4264 NBatch=         164 AvBLen=        26.0
 PrsmSu-ThDecC:  IPartSL=   39    0 NPrtUSL=   48    1 IThBeg=    0 IThEnd=   47 CPU=   -1 GPU=   -1 NThAct=   42.
 IPart= 47 NShTot=        4134 NBatch=         159 AvBLen=        26.0
 IPart= 13 NShTot=        4706 NBatch=         181 AvBLen=        26.0
 IPart= 15 NShTot=        4602 NBatch=         177 AvBLen=        26.0
 IPart= 36 NShTot=        4264 NBatch=         164 AvBLen=        26.0
 IPart= 35 NShTot=        4264 NBatch=         164 AvBLen=        26.0
 IPart= 10 NShTot=        4862 NBatch=         187 AvBLen=        26.0
 PrsmSu-ThDecC:  IPartSL=   34    0 NPrtUSL=   48    1 IThBeg=    0 IThEnd=   47 CPU=   -1 GPU=   -1 NThAct=   41.
 PrsmSu-ThDecC:  IPartSL=   35    0 NPrtUSL=   48    1 IThBeg=    0 IThEnd=   47 CPU=   -1 GPU=   -1 NThAct=   40.
 IPart= 21 NShTot=        4368 NBatch=         168 AvBLen=        26.0
 PrsmSu-ThDecC:  IPartSL=   15    0 NPrtUSL=   48    1 IThBeg=    0 IThEnd=   47 CPU=   -1 GPU=   -1 NThAct=   39.
 PrsmSu-ThDecC:  IPartSL=   21    0 NPrtUSL=   48    1 IThBeg=    0 IThEnd=   47 CPU=   -1 GPU=   -1 NThAct=   38.
 PrsmSu-ThDecC:  IPartSL=   10    0 NPrtUSL=   48    1 IThBeg=    0 IThEnd=   47 CPU=   -1 GPU=   -1 NThAct=   37.
 IPart=  9 NShTot=        4862 NBatch=         187 AvBLen=        26.0
 IPart=  8 NShTot=        4914 NBatch=         189 AvBLen=        26.0
 PrsmSu-ThDecC:  IPartSL=   13    0 NPrtUSL=   48    1 IThBeg=    0 IThEnd=   47 CPU=   -1 GPU=   -1 NThAct=   36.
 PrsmSu-ThDecC:  IPartSL=    9    0 NPrtUSL=   48    1 IThBeg=    0 IThEnd=   47 CPU=   -1 GPU=   -1 NThAct=   35.
 PrsmSu-ThDecC:  IPartSL=    8    0 NPrtUSL=   48    1 IThBeg=    0 IThEnd=   47 CPU=   -1 GPU=   -1 NThAct=   34.
 PrsmSu-ThDecC:  IPartSL=   36    0 NPrtUSL=   48    1 IThBeg=    0 IThEnd=   47 CPU=   -1 GPU=   -1 NThAct=   33.
 PrsmSu-ThDecC:  IPartSL=   47    0 NPrtUSL=   48    1 IThBeg=    0 IThEnd=   47 CPU=   -1 GPU=   -1 NThAct=   32.
 IPart=  0 NShTot=        5486 NBatch=         211 AvBLen=        26.0
 PrsmSu-ThDecC:  IPartSL=    0    0 NPrtUSL=   48    1 IThBeg=    0 IThEnd=   47 CPU=   -1 GPU=   -1 NThAct=   31.
 IPart=  1 NShTot=        5434 NBatch=         209 AvBLen=        26.0
 PrsmSu-ThDecC:  IPartSL=    1    0 NPrtUSL=   48    1 IThBeg=    0 IThEnd=   47 CPU=   -1 GPU=   -1 NThAct=   30.
 IPart= 17 NShTot=        4524 NBatch=         174 AvBLen=        26.0
 IPart= 37 NShTot=        4264 NBatch=         164 AvBLen=        26.0
 PrsmSu-ThDecC:  IPartSL=   17    0 NPrtUSL=   48    1 IThBeg=    0 IThEnd=   47 CPU=   -1 GPU=   -1 NThAct=   29.
 PrsmSu-ThDecC:  IPartSL=   37    0 NPrtUSL=   48    1 IThBeg=    0 IThEnd=   47 CPU=   -1 GPU=   -1 NThAct=   28.
 IPart= 44 NShTot=        4160 NBatch=         160 AvBLen=        26.0
 PrsmSu-ThDecC:  IPartSL=   44    0 NPrtUSL=   48    1 IThBeg=    0 IThEnd=   47 CPU=   -1 GPU=   -1 NThAct=   27.
 IPart= 43 NShTot=        4160 NBatch=         160 AvBLen=        26.0
 PrsmSu-ThDecC:  IPartSL=   43    0 NPrtUSL=   48    1 IThBeg=    0 IThEnd=   47 CPU=   -1 GPU=   -1 NThAct=   26.
 IPart= 28 NShTot=        4290 NBatch=         165 AvBLen=        26.0
 PrsmSu-ThDecC:  IPartSL=   28    0 NPrtUSL=   48    1 IThBeg=    0 IThEnd=   47 CPU=   -1 GPU=   -1 NThAct=   25.
 IPart= 27 NShTot=        4290 NBatch=         165 AvBLen=        26.0
 PrsmSu-ThDecC:  IPartSL=   27    0 NPrtUSL=   48    1 IThBeg=    0 IThEnd=   47 CPU=   -1 GPU=   -1 NThAct=   24.
 IPart= 38 NShTot=        4264 NBatch=         164 AvBLen=        26.0
 PrsmSu-ThDecC:  IPartSL=   38    0 NPrtUSL=   48    1 IThBeg=    0 IThEnd=   47 CPU=   -1 GPU=   -1 NThAct=   23.
 IPart=  3 NShTot=        5330 NBatch=         205 AvBLen=        26.0
 PrsmSu-ThDecC:  IPartSL=    3    0 NPrtUSL=   48    1 IThBeg=    0 IThEnd=   47 CPU=   -1 GPU=   -1 NThAct=   22.
 IPart= 41 NShTot=        4212 NBatch=         162 AvBLen=        26.0
 PrsmSu-ThDecC:  IPartSL=   41    0 NPrtUSL=   48    1 IThBeg=    0 IThEnd=   47 CPU=   -1 GPU=   -1 NThAct=   21.
 IPart= 26 NShTot=        4290 NBatch=         165 AvBLen=        26.0
 PrsmSu-ThDecC:  IPartSL=   26    0 NPrtUSL=   48    1 IThBeg=    0 IThEnd=   47 CPU=   -1 GPU=   -1 NThAct=   20.
 IPart= 20 NShTot=        4368 NBatch=         168 AvBLen=        26.0
 PrsmSu-ThDecC:  IPartSL=   20    0 NPrtUSL=   48    1 IThBeg=    0 IThEnd=   47 CPU=   -1 GPU=   -1 NThAct=   19.
 IPart= 18 NShTot=        4524 NBatch=         174 AvBLen=        26.0
 PrsmSu-ThDecC:  IPartSL=   18    0 NPrtUSL=   48    1 IThBeg=    0 IThEnd=   47 CPU=   -1 GPU=   -1 NThAct=   18.
 IPart= 40 NShTot=        4212 NBatch=         162 AvBLen=        26.0
 PrsmSu-ThDecC:  IPartSL=   40    0 NPrtUSL=   48    1 IThBeg=    0 IThEnd=   47 CPU=   -1 GPU=   -1 NThAct=   17.
 IPart= 16 NShTot=        4550 NBatch=         175 AvBLen=        26.0
 IPart= 14 NShTot=        4680 NBatch=         180 AvBLen=        26.0
 PrsmSu-ThDecC:  IPartSL=   16    0 NPrtUSL=   48    1 IThBeg=    0 IThEnd=   47 CPU=   -1 GPU=   -1 NThAct=   16.
 PrsmSu-ThDecC:  IPartSL=   14    0 NPrtUSL=   48    1 IThBeg=    0 IThEnd=   47 CPU=   -1 GPU=   -1 NThAct=   15.
 IPart=  4 NShTot=        5226 NBatch=         201 AvBLen=        26.0
 PrsmSu-ThDecC:  IPartSL=    4    0 NPrtUSL=   48    1 IThBeg=    0 IThEnd=   47 CPU=   -1 GPU=   -1 NThAct=   14.
 IPart= 30 NShTot=        4264 NBatch=         164 AvBLen=        26.0
 IPart= 46 NShTot=        4134 NBatch=         159 AvBLen=        26.0
 IPart= 22 NShTot=        4368 NBatch=         168 AvBLen=        26.0
 IPart= 32 NShTot=        4264 NBatch=         164 AvBLen=        26.0
 PrsmSu-ThDecC:  IPartSL=   30    0 NPrtUSL=   48    1 IThBeg=    0 IThEnd=   47 CPU=   -1 GPU=   -1 NThAct=   13.
 PrsmSu-ThDecC:  IPartSL=   32    0 NPrtUSL=   48    1 IThBeg=    0 IThEnd=   47 CPU=   -1 GPU=   -1 NThAct=   12.
 PrsmSu-ThDecC:  IPartSL=   46    0 NPrtUSL=   48    1 IThBeg=    0 IThEnd=   47 CPU=   -1 GPU=   -1 NThAct=   11.
 PrsmSu-ThDecC:  IPartSL=   22    0 NPrtUSL=   48    1 IThBeg=    0 IThEnd=   47 CPU=   -1 GPU=   -1 NThAct=   10.
 IPart= 11 NShTot=        4758 NBatch=         183 AvBLen=        26.0
 PrsmSu-ThDecC:  IPartSL=   11    0 NPrtUSL=   48    1 IThBeg=    0 IThEnd=   47 CPU=   -1 GPU=   -1 NThAct=    9.
 IPart= 33 NShTot=        4264 NBatch=         164 AvBLen=        26.0
 PrsmSu-ThDecC:  IPartSL=   33    0 NPrtUSL=   48    1 IThBeg=    0 IThEnd=   47 CPU=   -1 GPU=   -1 NThAct=    8.
 IPart= 24 NShTot=        4342 NBatch=         167 AvBLen=        26.0
 PrsmSu-ThDecC:  IPartSL=   24    0 NPrtUSL=   48    1 IThBeg=    0 IThEnd=   47 CPU=   -1 GPU=   -1 NThAct=    7.
 IPart= 25 NShTot=        4290 NBatch=         165 AvBLen=        26.0
 PrsmSu-ThDecC:  IPartSL=   25    0 NPrtUSL=   48    1 IThBeg=    0 IThEnd=   47 CPU=   -1 GPU=   -1 NThAct=    6.
 IPart=  2 NShTot=        5356 NBatch=         206 AvBLen=        26.0
 PrsmSu-ThDecC:  IPartSL=    2    0 NPrtUSL=   48    1 IThBeg=    0 IThEnd=   47 CPU=   -1 GPU=   -1 NThAct=    5.
 IPart= 12 NShTot=        4758 NBatch=         183 AvBLen=        26.0
 PrsmSu-ThDecC:  IPartSL=   12    0 NPrtUSL=   48    1 IThBeg=    0 IThEnd=   47 CPU=   -1 GPU=   -1 NThAct=    4.
 IPart=  7 NShTot=        4992 NBatch=         192 AvBLen=        26.0
 PrsmSu-ThDecC:  IPartSL=    7    0 NPrtUSL=   48    1 IThBeg=    0 IThEnd=   47 CPU=   -1 GPU=   -1 NThAct=    3.
 IPart=  6 NShTot=        5070 NBatch=         195 AvBLen=        26.0
 PrsmSu-ThDecC:  IPartSL=    6    0 NPrtUSL=   48    1 IThBeg=    0 IThEnd=   47 CPU=   -1 GPU=   -1 NThAct=    2.
 IPart=  5 NShTot=        5200 NBatch=         200 AvBLen=        26.0
 PrsmSu-ThDecC:  IPartSL=    5    0 NPrtUSL=   48    1 IThBeg=    0 IThEnd=   47 CPU=   -1 GPU=   -1 NThAct=    1.
 PrSmSu:  NxtVal=           2161.
 --------------------------------------------------------
       Center         ----      EFG at Nuclei      ----
                      3XX-RR        3YY-RR        3ZZ-RR
 --------------------------------------------------------
     1   Atom        0.114703     -0.274779      0.160076
     2   Atom        0.201874      0.163885     -0.365759
     3   Atom       -0.097393     -0.062394      0.159788
     4   Atom        0.180507      0.082295     -0.262802
     5   Atom        0.047971      0.310642     -0.358613
     6   Atom        1.527082     -0.650945     -0.876136
     7   Atom       -1.223448      0.694642      0.528806
     8   Atom       -0.095878      0.078239      0.017639
     9   Atom        0.131993     -0.192348      0.060356
    10   Atom        0.068379      0.147527     -0.215906
    11   Atom        0.020126      0.118211     -0.138338
    12   Atom       -0.023981      0.041810     -0.017828
    13   Atom        0.128352     -0.185596      0.057244
    14   Atom        0.121705     -0.058641     -0.063065
    15   Atom        0.095847     -0.123701      0.027854
    16   Atom       -0.001095     -0.017107      0.018202
    17   Atom        0.061235      0.119736     -0.180971
    18   Atom       -0.162689      0.038466      0.124223
    19   Atom       -0.135280      0.023793      0.111487
    20   Atom       -0.054578      0.035888      0.018689
    21   Atom        0.123906     -0.189297      0.065391
    22   Atom        0.070664      0.129235     -0.199899
    23   Atom        0.087293     -0.093226      0.005933
    24   Atom        0.061979      0.047935     -0.109914
    25   Atom        0.114119      0.062514     -0.176633
    26   Atom       -0.276115      0.129276      0.146839
 --------------------------------------------------------
                        XY            XZ            YZ
 --------------------------------------------------------
     1   Atom        0.125964      0.002430     -0.003911
     2   Atom       -0.040321     -0.048502     -0.008217
     3   Atom       -0.230197      0.032625      0.028845
     4   Atom       -0.093806     -0.045854      0.002022
     5   Atom        0.156600     -0.078783     -0.025620
     6   Atom        0.404198     -0.283286     -0.122167
     7   Atom        0.114663      0.977840      0.588043
     8   Atom       -0.215433      0.263220      0.231135
     9   Atom       -0.067702     -0.022626     -0.161172
    10   Atom        0.013825     -0.151516      0.056525
    11   Atom        0.058511     -0.089149      0.049243
    12   Atom       -0.132599      0.158657      0.136233
    13   Atom       -0.067230     -0.044562     -0.167666
    14   Atom        0.650070     -0.688434     -0.570244
    15   Atom       -0.090178     -0.031891     -0.128977
    16   Atom       -0.162369      0.142437      0.137894
    17   Atom        0.045183     -0.179198      0.078454
    18   Atom        0.183762      0.084273     -0.060097
    19   Atom        0.141217      0.049098     -0.013274
    20   Atom       -0.141004      0.166284      0.124383
    21   Atom       -0.074356     -0.043492     -0.176825
    22   Atom        0.046745     -0.160625      0.079444
    23   Atom        0.023753     -0.010006     -0.001792
    24   Atom       -0.091950     -0.156600     -0.160866
    25   Atom       -0.054569      0.115715      0.165292
    26   Atom        0.071630      0.039485     -0.006848
 --------------------------------------------------------


 ---------------------------------------------------------------------------------
              Nuclear Quadrupole Coupling Constant in Principal Axis System
 ---------------------------------------------------------------------------------

       Atom             a.u.   MegaHertz   Gauss  10(-4) cm-1        Axes

              Baa    -0.6653     3.195     1.140     1.066  0.6501  0.0174  0.7596
    14 N(14)  Bbb    -0.6165     2.961     1.056     0.988 -0.4214  0.8401  0.3414
              Bcc     1.2818    -6.156    -2.197    -2.053  0.6323  0.5421 -0.5535
 

 ---------------------------------------------------------------------------------

 No NMR shielding tensors so no spin-rotation constants.
 Leave Link  601 at Thu Apr 21 16:33:23 2022, MaxMem= 25769803776 cpu:              12.9 elap:               0.3
 Calling FoFJK, ICntrl=      2127 FMM=F ISym2X=0 I1Cent= 0 IOpClX= 0 NMat=1 NMatS=1 NMatT=0.
 ***** Axes restored to original set *****
 -------------------------------------------------------------------
 Center     Atomic                   Forces (Hartrees/Bohr)
 Number     Number              X              Y              Z
 -------------------------------------------------------------------
      1        1          -0.003741314   -0.000012587   -0.000400574
      2        6          -0.003901103   -0.009791864   -0.001155919
      3        1          -0.002205490   -0.000768401    0.000600430
      4        6          -0.001255015    0.008856432   -0.004004275
      5        6           0.022517625   -0.008513476   -0.005422629
      6        8          -0.016215185    0.009934589    0.004432266
      7        8           0.008268333   -0.007882200    0.010079087
      8        6          -0.016540795   -0.011576217   -0.010321700
      9        1           0.002733557    0.002337479    0.005569020
     10        1          -0.001683968   -0.002312759   -0.001677577
     11        6           0.007245390    0.013794434   -0.006026360
     12        1           0.002123135   -0.006762870    0.001492592
     13        1          -0.002148798   -0.000128888   -0.004865409
     14        7          -0.001497569   -0.002834063    0.003412397
     15        6           0.006048421    0.005231373   -0.003449622
     16        1          -0.002037040   -0.005599406    0.001091352
     17        1          -0.001951382    0.001806380    0.004015421
     18        1          -0.001507180    0.000653164    0.002802378
     19        6           0.004008535    0.007392744   -0.001917502
     20        1          -0.003506368   -0.003810168    0.002202367
     21        1           0.002441832   -0.001911809    0.001025077
     22        1           0.003063212   -0.001988526    0.001343371
     23        6          -0.007250372    0.011941632    0.000731825
     24        1           0.000610820    0.001403155   -0.001996954
     25        1           0.000483848    0.000825132    0.002543134
     26        1           0.005896872   -0.000283280   -0.000102197
 -------------------------------------------------------------------
 Cartesian Forces:  Max     0.022517625 RMS     0.006122751

 GradGradGradGradGradGradGradGradGradGradGradGradGradGradGradGradGradGrad
 Berny optimization.
 FormGI is forming the generalized inverse of G from B-inverse, IUseBI=4.
 Internal  Forces:  Max     0.024850365 RMS     0.005379042
 Search for a local minimum.
 Step number   1 out of a maximum of  124
 All quantities printed in internal units (Hartrees-Bohrs-Radians)
 Mixed Optimization -- RFO/linear search
 Second derivative matrix not updated -- first step.
 ITU=  0
     Eigenvalues ---    0.00272   0.00670   0.00740   0.00825   0.00835
     Eigenvalues ---    0.00869   0.01198   0.01326   0.01422   0.02197
     Eigenvalues ---    0.02841   0.02843   0.02843   0.03876   0.05080
     Eigenvalues ---    0.05415   0.05735   0.07036   0.07042   0.07097
     Eigenvalues ---    0.07293   0.07361   0.07378   0.09549   0.11352
     Eigenvalues ---    0.13009   0.13740   0.16000   0.16000   0.16000
     Eigenvalues ---    0.16000   0.16000   0.16000   0.16000   0.16000
     Eigenvalues ---    0.16000   0.16000   0.16000   0.16633   0.17169
     Eigenvalues ---    0.21937   0.22083   0.24999   0.25000   0.25000
     Eigenvalues ---    0.25000   0.25000   0.28754   0.32172   0.33206
     Eigenvalues ---    0.33812   0.33882   0.34072   0.34092   0.34113
     Eigenvalues ---    0.34155   0.34167   0.34181   0.34183   0.34220
     Eigenvalues ---    0.34252   0.34326   0.34381   0.34884   0.35218
     Eigenvalues ---    0.35221   0.36278   0.36377   0.39954   0.52583
     Eigenvalues ---    0.56550   0.95226
 RFO step:  Lambda=-1.53597445D-02 EMin= 2.71715845D-03
 Linear search not attempted -- first point.
 Iteration  1 RMS(Cart)=  0.14987867 RMS(Int)=  0.00797914
 Iteration  2 RMS(Cart)=  0.03619855 RMS(Int)=  0.00030237
 Iteration  3 RMS(Cart)=  0.00057923 RMS(Int)=  0.00012523
 Iteration  4 RMS(Cart)=  0.00000012 RMS(Int)=  0.00012523
 Variable       Old X    -DE/DX   Delta X   Delta X   Delta X     New X
                                 (Linear)    (Quad)   (Total)
    R1        2.05322  -0.00224   0.00000  -0.00609  -0.00609   2.04713
    R2        2.05317  -0.00158   0.00000  -0.00431  -0.00431   2.04886
    R3        2.53780  -0.01071   0.00000  -0.01844  -0.01844   2.51936
    R4        2.81991   0.00500   0.00000   0.01440   0.01440   2.83431
    R5        2.83830   0.01147   0.00000   0.03402   0.03402   2.87233
    R6        2.30614  -0.01696   0.00000  -0.01753  -0.01753   2.28861
    R7        2.57345  -0.00639   0.00000  -0.01180  -0.01180   2.56165
    R8        2.71616   0.00413   0.00000   0.00997   0.00997   2.72612
    R9        2.07140  -0.00430   0.00000  -0.01207  -0.01207   2.05932
   R10        2.06906  -0.00179   0.00000  -0.00500  -0.00500   2.06406
   R11        2.90519  -0.01132   0.00000  -0.03738  -0.03738   2.86781
   R12        2.07530   0.00491   0.00000   0.01386   0.01386   2.08916
   R13        2.07648  -0.00248   0.00000  -0.00701  -0.00701   2.06947
   R14        2.79163  -0.01168   0.00000  -0.03207  -0.03207   2.75957
   R15        2.76796  -0.00427   0.00000  -0.01125  -0.01125   2.75671
   R16        2.76949  -0.00583   0.00000  -0.01542  -0.01542   2.75407
   R17        2.07048   0.00595   0.00000   0.01666   0.01666   2.08715
   R18        2.07069  -0.00252   0.00000  -0.00705  -0.00705   2.06364
   R19        2.06783  -0.00201   0.00000  -0.00561  -0.00561   2.06222
   R20        2.07176   0.00556   0.00000   0.01560   0.01560   2.08735
   R21        2.06961  -0.00141   0.00000  -0.00396  -0.00396   2.06565
   R22        2.07209  -0.00274   0.00000  -0.00770  -0.00770   2.06440
   R23        2.07026  -0.00101   0.00000  -0.00282  -0.00282   2.06744
   R24        2.07023  -0.00125   0.00000  -0.00349  -0.00349   2.06673
   R25        2.06691  -0.00568   0.00000  -0.01583  -0.01583   2.05109
    A1        2.03485   0.00320   0.00000   0.01824   0.01823   2.05308
    A2        2.13961  -0.00298   0.00000  -0.01700  -0.01701   2.12260
    A3        2.10872  -0.00022   0.00000  -0.00123  -0.00124   2.10749
    A4        2.13909  -0.02485   0.00000  -0.09364  -0.09364   2.04544
    A5        2.10828   0.00260   0.00000   0.00983   0.00982   2.11810
    A6        2.03580   0.02225   0.00000   0.08385   0.08384   2.11964
    A7        2.14499   0.00583   0.00000   0.02204   0.02192   2.16691
    A8        1.95681   0.00907   0.00000   0.03423   0.03412   1.99093
    A9        2.18135  -0.01489   0.00000  -0.05605  -0.05615   2.12520
   A10        1.96937   0.01377   0.00000   0.05189   0.05189   2.02126
   A11        1.90715   0.00149   0.00000   0.01123   0.01149   1.91863
   A12        1.88411   0.00397   0.00000   0.01466   0.01429   1.89841
   A13        1.92074  -0.00811   0.00000  -0.03185  -0.03185   1.88890
   A14        1.91471  -0.00321   0.00000  -0.02254  -0.02244   1.89228
   A15        1.91420   0.00631   0.00000   0.04043   0.04063   1.95483
   A16        1.92264  -0.00052   0.00000  -0.01249  -0.01251   1.91013
   A17        1.90911  -0.00491   0.00000  -0.03436  -0.03427   1.87484
   A18        1.87221   0.00313   0.00000   0.02561   0.02575   1.89796
   A19        1.98927   0.00202   0.00000   0.00468   0.00464   1.99391
   A20        1.84411   0.00190   0.00000   0.02202   0.02231   1.86642
   A21        1.93859   0.00209   0.00000   0.01107   0.01097   1.94956
   A22        1.90371  -0.00419   0.00000  -0.02699  -0.02701   1.87670
   A23        1.96013   0.00037   0.00000   0.00561   0.00564   1.96576
   A24        1.92639  -0.00279   0.00000  -0.01135  -0.01147   1.91492
   A25        1.90994   0.00302   0.00000   0.01978   0.01980   1.92974
   A26        1.95635   0.00260   0.00000   0.01368   0.01371   1.97006
   A27        1.93035  -0.00499   0.00000  -0.02929  -0.02932   1.90104
   A28        1.94379  -0.00192   0.00000  -0.00904  -0.00908   1.93472
   A29        1.89202   0.00055   0.00000  -0.00045  -0.00041   1.89160
   A30        1.89668  -0.00006   0.00000   0.00111   0.00112   1.89780
   A31        1.84023   0.00401   0.00000   0.02510   0.02501   1.86524
   A32        1.95674   0.00216   0.00000   0.01160   0.01164   1.96838
   A33        1.93494  -0.00303   0.00000  -0.01743  -0.01747   1.91748
   A34        1.92803  -0.00311   0.00000  -0.01686  -0.01689   1.91113
   A35        1.89409   0.00015   0.00000  -0.00075  -0.00072   1.89337
   A36        1.88754   0.00059   0.00000   0.00362   0.00366   1.89120
   A37        1.85914   0.00343   0.00000   0.02099   0.02089   1.88003
   A38        1.92740   0.00144   0.00000   0.00722   0.00724   1.93463
   A39        1.92544   0.00138   0.00000   0.00646   0.00648   1.93192
   A40        1.97343  -0.00227   0.00000  -0.01050  -0.01048   1.96295
   A41        1.89471  -0.00252   0.00000  -0.01917  -0.01916   1.87555
   A42        1.87057   0.00101   0.00000   0.00849   0.00851   1.87908
   A43        1.86940   0.00086   0.00000   0.00681   0.00683   1.87623
    D1       -0.00316   0.00043   0.00000   0.01030   0.01008   0.00693
    D2       -3.13834   0.00010   0.00000   0.00188   0.00210  -3.13624
    D3        3.13621   0.00081   0.00000   0.01892   0.01871  -3.12827
    D4        0.00102   0.00048   0.00000   0.01050   0.01072   0.01174
    D5       -0.00002  -0.00093   0.00000  -0.03569  -0.03584  -0.03586
    D6        3.13317  -0.00023   0.00000  -0.00976  -0.00947   3.12371
    D7        3.13542  -0.00068   0.00000  -0.02782  -0.02811   3.10731
    D8       -0.01458   0.00003   0.00000  -0.00189  -0.00173  -0.01631
    D9       -1.05710   0.00065   0.00000   0.00625   0.00643  -1.05067
   D10        1.03746  -0.00068   0.00000  -0.00882  -0.00864   1.02882
   D11        3.13033  -0.00012   0.00000  -0.00263  -0.00244   3.12789
   D12        2.09054   0.00051   0.00000  -0.00107  -0.00126   2.08928
   D13       -2.09809  -0.00082   0.00000  -0.01615  -0.01633  -2.11442
   D14       -0.00521  -0.00027   0.00000  -0.00995  -0.01013  -0.01535
   D15       -2.60935  -0.00924   0.00000  -0.24983  -0.24937  -2.85873
   D16        0.52363  -0.00840   0.00000  -0.22280  -0.22326   0.30036
   D17       -1.04722   0.00154   0.00000   0.01947   0.01944  -1.02778
   D18        1.03423   0.00084   0.00000   0.00730   0.00740   1.04162
   D19        3.13312  -0.00214   0.00000  -0.01765  -0.01772   3.11540
   D20       -3.05424   0.00006   0.00000  -0.00042  -0.00049  -3.05473
   D21       -1.06205   0.00149   0.00000   0.02169   0.02141  -1.04063
   D22        1.04721  -0.00032   0.00000   0.00860   0.00841   1.05562
   D23        1.13036  -0.00068   0.00000  -0.01985  -0.01970   1.11066
   D24        3.12255   0.00075   0.00000   0.00227   0.00221   3.12476
   D25       -1.05138  -0.00106   0.00000  -0.01082  -0.01080  -1.06218
   D26       -0.97879  -0.00041   0.00000  -0.00987  -0.00962  -0.98841
   D27        1.01340   0.00102   0.00000   0.01224   0.01229   1.02569
   D28        3.12266  -0.00079   0.00000  -0.00084  -0.00072   3.12194
   D29        1.04723  -0.00240   0.00000  -0.00211  -0.00208   1.04515
   D30       -3.09953  -0.00027   0.00000   0.01910   0.01908  -3.08045
   D31       -1.11873   0.00094   0.00000   0.03138   0.03141  -1.08732
   D32        1.01769   0.00307   0.00000   0.05259   0.05257   1.07027
   D33        3.13882  -0.00007   0.00000   0.01441   0.01442  -3.12994
[...]
 **** Fit       0.009693
 **** Fit       0.007608
 **** Fit       0.005243
 **** Fit       0.003001
 **** Fit       0.001147
 **** Fit      -0.000223
 **** Fit      -0.001133
 **** Fit       0.007101
 **** Fit       0.008273
 **** Fit       0.009403
 **** Fit       0.010308
 **** Fit       0.010745
 **** Fit       0.010477
 **** Fit       0.009394
 **** Fit       0.007625
 **** Fit       0.005522
 **** Fit       0.003484
 **** Fit       0.001789
 **** Fit       0.000534
 **** Fit      -0.000308
 **** Fit      -0.000827
 **** Fit       0.006611
 **** Fit       0.007669
 **** Fit       0.008720
 **** Fit       0.009620
 **** Fit       0.010150
 **** Fit       0.010061
 **** Fit       0.009193
 **** Fit       0.007625
 **** Fit       0.005691
 **** Fit       0.003802
 **** Fit       0.002244
 **** Fit       0.001107
 **** Fit       0.000351
 **** Fit      -0.000122
 **** Fit      -0.000413
 **** Fit       0.006134
 **** Fit       0.007087
 **** Fit       0.008057
 **** Fit       0.008920
 **** Fit       0.009479
 **** Fit       0.009488
 **** Fit       0.008772
 **** Fit       0.007384
 **** Fit       0.005635
 **** Fit       0.003924
 **** Fit       0.002524
 **** Fit       0.001519
 **** Fit       0.000860
 **** Fit       0.000445
 **** Fit       0.000175
 **** Fit       0.005640
 **** Fit       0.006473
 **** Fit       0.007322
 **** Fit       0.008083
 **** Fit       0.008581
 **** Fit       0.008605
 **** Fit       0.008004
 **** Fit       0.006821
 **** Fit       0.005324
 **** Fit       0.003856
 **** Fit       0.002658
 **** Fit       0.001803
 **** Fit       0.001245
 **** Fit       0.000889
 **** Fit       0.000644
 **** Fit       0.005125
 **** Fit       0.005820
 **** Fit       0.006516
 **** Fit       0.007123
 **** Fit       0.007503
 **** Fit       0.007492
 **** Fit       0.006986
 **** Fit       0.006031
 **** Fit       0.004831
 **** Fit       0.003652
 **** Fit       0.002683
 **** Fit       0.001987
 **** Fit       0.001526
 **** Fit       0.001223
 **** Fit       0.001001
 **** Fit       0.005159
 **** Fit       0.005693
 **** Fit       0.006137
 **** Fit       0.006387
 **** Fit       0.006335
 **** Fit       0.005920
 **** Fit       0.005185
 **** Fit       0.004278
 **** Fit       0.003384
 **** Fit       0.002638
 **** Fit       0.002090
 **** Fit       0.001715
 **** Fit       0.001456
 **** Fit       0.004529
 **** Fit       0.004919
 **** Fit       0.005222
 **** Fit       0.005368
 **** Fit       0.005290
 **** Fit       0.004960
 **** Fit       0.004416
 **** Fit       0.003758
 **** Fit       0.003105
 **** Fit       0.002550
 **** Fit       0.002128
 **** Fit       0.004237
 **** Fit       0.004435
 **** Fit       0.004510
 **** Fit       0.004426
 **** Fit       0.004172
 **** Fit       0.003779
 **** Fit       0.003312
 **** Fit       0.002845
 **** Fit       0.002438
 **** Fit       0.003823
 **** Fit       0.003746
 **** Fit       0.003555
 **** Fit       0.003275
 **** Fit       0.002945
 **** Fit       0.001787
 **** Fit       0.001736
 **** Fit       0.001506
 **** Fit       0.001078
 **** Fit       0.000462
 **** Fit      -0.000303
 **** Fit      -0.001160
 **** Fit       0.002602
 **** Fit       0.002792
 **** Fit       0.002794
 **** Fit       0.002548
 **** Fit       0.002024
 **** Fit       0.001246
 **** Fit       0.000280
 **** Fit      -0.000783
 **** Fit      -0.001849
 **** Fit       0.003215
 **** Fit       0.003695
 **** Fit       0.004045
 **** Fit       0.004150
 **** Fit       0.003905
 **** Fit       0.003262
 **** Fit       0.002259
 **** Fit       0.001014
 **** Fit      -0.000325
 **** Fit      -0.001625
 **** Fit      -0.002787
 **** Fit       0.003519
 **** Fit       0.004255
 **** Fit       0.004983
 **** Fit       0.005579
 **** Fit       0.005869
 **** Fit       0.005671
 **** Fit       0.004889
 **** Fit       0.003583
 **** Fit       0.001957
 **** Fit       0.000250
 **** Fit      -0.001346
 **** Fit      -0.002714
 **** Fit      -0.003797
 **** Fit       0.003503
 **** Fit       0.004375
 **** Fit       0.005368
 **** Fit       0.006413
 **** Fit       0.007354
 **** Fit       0.007937
 **** Fit       0.007863
 **** Fit       0.006941
 **** Fit       0.005250
 **** Fit       0.003127
 **** Fit       0.000956
 **** Fit      -0.000994
 **** Fit      -0.002592
 **** Fit      -0.003802
 **** Fit       0.004126
 **** Fit       0.005193
 **** Fit       0.006453
 **** Fit       0.007844
 **** Fit       0.009191
 **** Fit       0.010156
 **** Fit       0.010286
 **** Fit       0.009250
 **** Fit       0.007135
 **** Fit       0.004445
 **** Fit       0.001757
 **** Fit      -0.000567
 **** Fit      -0.002397
 **** Fit      -0.003724
 **** Fit      -0.004600
 **** Fit       0.004656
 **** Fit       0.005882
 **** Fit       0.007363
 **** Fit       0.009049
 **** Fit       0.010757
 **** Fit       0.012081
 **** Fit       0.012432
 **** Fit       0.011335
 **** Fit       0.008866
 **** Fit       0.005685
 **** Fit       0.002552
 **** Fit      -0.000087
 **** Fit      -0.002103
 **** Fit      -0.003522
 **** Fit      -0.004428
 **** Fit       0.005045
 **** Fit       0.006361
 **** Fit       0.007959
 **** Fit       0.009796
 **** Fit       0.011682
 **** Fit       0.013185
 **** Fit       0.013656
 **** Fit       0.012556
 **** Fit       0.009947
 **** Fit       0.006552
 **** Fit       0.003210
 **** Fit       0.000416
 **** Fit      -0.001695
 **** Fit      -0.003162
 **** Fit      -0.004085
 **** Fit       0.005268
 **** Fit       0.006589
 **** Fit       0.008176
 **** Fit       0.009977
 **** Fit       0.011796
 **** Fit       0.013220
 **** Fit       0.013647
 **** Fit       0.012596
 **** Fit       0.010126
 **** Fit       0.006888
 **** Fit       0.003658
 **** Fit       0.000920
 **** Fit      -0.001170
 **** Fit      -0.002634
 **** Fit      -0.003561
 **** Fit       0.005332
 **** Fit       0.006584
 **** Fit       0.008052
 **** Fit       0.009669
 **** Fit       0.011241
 **** Fit       0.012408
 **** Fit       0.012693
 **** Fit       0.011741
 **** Fit       0.009610
 **** Fit       0.006801
 **** Fit       0.003928
 **** Fit       0.001418
 **** Fit      -0.000552
 **** Fit      -0.001966
 **** Fit      -0.002886
 **** Fit       0.006407
 **** Fit       0.007702
 **** Fit       0.009074
 **** Fit       0.010346
 **** Fit       0.011230
 **** Fit       0.011383
 **** Fit       0.010570
 **** Fit       0.008841
 **** Fit       0.006539
 **** Fit       0.004110
 **** Fit       0.001906
 **** Fit       0.000112
 **** Fit      -0.001221
 **** Fit       0.006131
 **** Fit       0.007250
 **** Fit       0.008394
 **** Fit       0.009413
 **** Fit       0.010088
 **** Fit       0.010177
 **** Fit       0.009523
 **** Fit       0.008156
 **** Fit       0.006301
 **** Fit       0.004276
 **** Fit       0.002368
 **** Fit       0.000759
 **** Fit      -0.000476
 **** Fit       0.006783
 **** Fit       0.007752
 **** Fit       0.008601
 **** Fit       0.009161
 **** Fit       0.009255
 **** Fit       0.008759
 **** Fit       0.007677
 **** Fit       0.006157
 **** Fit       0.004443
 **** Fit       0.002777
 **** Fit       0.001335
 **** Fit       0.000201
 **** Fit       0.007186
 **** Fit       0.007933
 **** Fit       0.008447
 **** Fit       0.008583
 **** Fit       0.008227
 **** Fit       0.007357
 **** Fit       0.006076
 **** Fit       0.004583
 **** Fit       0.003102
 **** Fit       0.001804
 **** Fit       0.000771
 **** Fit       0.006675
 **** Fit       0.007355
 **** Fit       0.007851
 **** Fit       0.008033
 **** Fit       0.007788
 **** Fit       0.007076
 **** Fit       0.005969
 **** Fit       0.004646
 **** Fit       0.003319
 **** Fit       0.002150
 **** Fit       0.001219
 **** Fit       0.000531
 **** Fit       0.006180
 **** Fit       0.006799
 **** Fit       0.007268
 **** Fit       0.007473
 **** Fit       0.007303
 **** Fit       0.006711
 **** Fit       0.005753
 **** Fit       0.004588
 **** Fit       0.003411
 **** Fit       0.002375
 **** Fit       0.001550
 **** Fit       0.000940
 **** Fit       0.005673
 **** Fit       0.006218
 **** Fit       0.006637
 **** Fit       0.006830
 **** Fit       0.006702
 **** Fit       0.006207
 **** Fit       0.005393
 **** Fit       0.004395
 **** Fit       0.003384
 **** Fit       0.002491
 **** Fit       0.001780
 **** Fit       0.005150
 **** Fit       0.005607
 **** Fit       0.005954
 **** Fit       0.006109
 **** Fit       0.005999
 **** Fit       0.005588
 **** Fit       0.004918
 **** Fit       0.004097
 **** Fit       0.003262
 **** Fit       0.002521
 **** Fit       0.001925
 **** Fit       0.004990
 **** Fit       0.005257
 **** Fit       0.005365
 **** Fit       0.005262
 **** Fit       0.004927
 **** Fit       0.004393
 **** Fit       0.003745
 **** Fit       0.003082
 **** Fit       0.002487
 **** Fit       0.002001
 **** Fit       0.004594
 **** Fit       0.004660
 **** Fit       0.004564
 **** Fit       0.004296
 **** Fit       0.003883
 **** Fit       0.003386
 **** Fit       0.002876
 **** Fit       0.002411
 **** Fit       0.004035
 **** Fit       0.003948
 **** Fit       0.003738
 **** Fit       0.003426
 **** Fit       0.003053
 **** Fit       0.002384
 **** Fit       0.002332
 **** Fit       0.002084
 **** Fit       0.001626
 **** Fit       0.000977
 **** Fit       0.000187
 **** Fit      -0.000677
 **** Fit       0.003159
 **** Fit       0.003364
 **** Fit       0.003370
 **** Fit       0.003115
 **** Fit       0.002573
 **** Fit       0.001776
 **** Fit       0.000802
 **** Fit      -0.000249
 **** Fit      -0.001282
 **** Fit       0.003664
 **** Fit       0.004147
 **** Fit       0.004493
 **** Fit       0.004593
 **** Fit       0.004348
 **** Fit       0.003715
 **** Fit       0.002737
 **** Fit       0.001533
 **** Fit       0.000252
 **** Fit      -0.000976
 **** Fit      -0.002061
 **** Fit       0.003829
 **** Fit       0.004526
 **** Fit       0.005194
 **** Fit       0.005721
 **** Fit       0.005954
 **** Fit       0.005746
 **** Fit       0.005022
 **** Fit       0.003839
 **** Fit       0.002369
 **** Fit       0.000826
 **** Fit      -0.000619
 **** Fit      -0.001858
 **** Fit      -0.002845
 **** Fit       0.004484
 **** Fit       0.005345
 **** Fit       0.006205
 **** Fit       0.006929
 **** Fit       0.007322
 **** Fit       0.007177
 **** Fit       0.006378
 **** Fit       0.004992
 **** Fit       0.003252
 **** Fit       0.001444
 **** Fit      -0.000213
 **** Fit      -0.001599
 **** Fit      -0.002674
 **** Fit       0.005037
 **** Fit       0.006032
 **** Fit       0.007052
 **** Fit       0.007946
 **** Fit       0.008483
 **** Fit       0.008408
 **** Fit       0.007565
 **** Fit       0.006024
 **** Fit       0.004071
 **** Fit       0.002051
 **** Fit       0.000224
 **** Fit      -0.001277
 **** Fit      -0.002420
 **** Fit       0.005436
 **** Fit       0.006507
 **** Fit       0.007614
 **** Fit       0.008600
 **** Fit       0.009218
 **** Fit       0.009191
 **** Fit       0.008343
 **** Fit       0.006745
 **** Fit       0.004699
 **** Fit       0.002581
 **** Fit       0.000671
 **** Fit      -0.000891
 **** Fit      -0.002070
 **** Fit       0.005653
 **** Fit       0.006730
 **** Fit       0.007834
 **** Fit       0.008811
 **** Fit       0.009423
 **** Fit       0.009405
 **** Fit       0.008595
 **** Fit       0.007054
 **** Fit       0.005067
 **** Fit       0.002992
 **** Fit       0.001106
 **** Fit      -0.000448
 **** Fit      -0.001629
 **** Fit       0.005698
 **** Fit       0.006717
 **** Fit       0.007744
 **** Fit       0.008631
 **** Fit       0.009169
 **** Fit       0.009135
 **** Fit       0.008395
 **** Fit       0.007005
 **** Fit       0.005200
 **** Fit       0.003288
 **** Fit       0.001517
 **** Fit       0.000032
 **** Fit      -0.001115
 **** Fit       0.005606
 **** Fit       0.006531
 **** Fit       0.007439
 **** Fit       0.008202
 **** Fit       0.008645
 **** Fit       0.008593
 **** Fit       0.007948
 **** Fit       0.006753
 **** Fit       0.005189
 **** Fit       0.003499
 **** Fit       0.001898
 **** Fit       0.000523
 **** Fit       0.006243
 **** Fit       0.007031
 **** Fit       0.007675
 **** Fit       0.008037
 **** Fit       0.007986
 **** Fit       0.007446
 **** Fit       0.006447
 **** Fit       0.005123
 **** Fit       0.003662
 **** Fit       0.002241
 **** Fit       0.000991
 **** Fit       0.006597
 **** Fit       0.007150
 **** Fit       0.007463
 **** Fit       0.007431
 **** Fit       0.006994
 **** Fit       0.006169
 **** Fit       0.005051
 **** Fit       0.003789
 **** Fit       0.002536
 **** Fit       0.006953
 **** Fit       0.006952
 **** Fit       0.006609
 **** Fit       0.005926
 **** Fit       0.004974
 **** Fit       0.003876
 **** Fit       0.002767
 **** Fit       0.001755
 **** Fit       0.006213
 **** Fit       0.006487
 **** Fit       0.006518
 **** Fit       0.006251
 **** Fit       0.005682
 **** Fit       0.004865
 **** Fit       0.003905
 **** Fit       0.002922
 **** Fit       0.002018
 **** Fit       0.005768
 **** Fit       0.006027
 **** Fit       0.006078
 **** Fit       0.005870
 **** Fit       0.005394
 **** Fit       0.004692
 **** Fit       0.003856
 **** Fit       0.002993
 **** Fit       0.002195
 **** Fit       0.005314
 **** Fit       0.005548
 **** Fit       0.005604
 **** Fit       0.005438
 **** Fit       0.005039
 **** Fit       0.004443
 **** Fit       0.003727
 **** Fit       0.002984
 **** Fit       0.002293
 **** Fit       0.005045
 **** Fit       0.005094
 **** Fit       0.004957
 **** Fit       0.004625
 **** Fit       0.004129
 **** Fit       0.003530
 **** Fit       0.002906
 **** Fit       0.004571
 **** Fit       0.004455
 **** Fit       0.004182
 **** Fit       0.003778
 **** Fit       0.003291
 **** Fit       0.002781
 **** Fit       0.003745
 **** Fit       0.002757
 **** Fit       0.002707
 **** Fit       0.002463
 **** Fit       0.002015
 **** Fit       0.001384
 **** Fit       0.000623
 **** Fit       0.003412
 **** Fit       0.003600
 **** Fit       0.003599
 **** Fit       0.003354
 **** Fit       0.002846
 **** Fit       0.002106
 **** Fit       0.001205
 **** Fit       0.000235
 **** Fit      -0.000715
 **** Fit       0.004192
 **** Fit       0.004479
 **** Fit       0.004542
 **** Fit       0.004307
 **** Fit       0.003743
 **** Fit       0.002887
 **** Fit       0.001836
 **** Fit       0.000713
 **** Fit      -0.000373
 **** Fit       0.004399
 **** Fit       0.004929
 **** Fit       0.005318
 **** Fit       0.005455
 **** Fit       0.005240
 **** Fit       0.004631
 **** Fit       0.003670
 **** Fit       0.002478
 **** Fit       0.001210
 **** Fit      -0.000001
 **** Fit      -0.001065
 **** Fit       0.004928
 **** Fit       0.005550
 **** Fit       0.006025
 **** Fit       0.006228
 **** Fit       0.006040
 **** Fit       0.005404
 **** Fit       0.004368
 **** Fit       0.003071
 **** Fit       0.001693
 **** Fit       0.000385
 **** Fit      -0.000751
 **** Fit       0.005312
 **** Fit       0.005987
 **** Fit       0.006515
 **** Fit       0.006760
 **** Fit       0.006595
 **** Fit       0.005958
 **** Fit       0.004895
 **** Fit       0.003554
 **** Fit       0.002125
 **** Fit       0.000771
 **** Fit      -0.000403
 **** Fit       0.005526
 **** Fit       0.006209
 **** Fit       0.006745
 **** Fit       0.007001
 **** Fit       0.006852
 **** Fit       0.006239
 **** Fit       0.005204
 **** Fit       0.003891
 **** Fit       0.002482
 **** Fit       0.001139
 **** Fit      -0.000032
 **** Fit       0.005576
 **** Fit       0.006229
 **** Fit       0.006735
 **** Fit       0.006974
 **** Fit       0.006836
 **** Fit       0.006268
 **** Fit       0.005310
 **** Fit       0.004085
 **** Fit       0.002758
 **** Fit       0.001479
 **** Fit       0.000350
 **** Fit       0.006092
 **** Fit       0.006547
 **** Fit       0.006757
 **** Fit       0.006631
 **** Fit       0.006125
 **** Fit       0.005271
 **** Fit       0.004172
 **** Fit       0.002966
 **** Fit       0.001785
 **** Fit       0.006259
 **** Fit       0.006442
 **** Fit       0.006332
 **** Fit       0.005895
 **** Fit       0.005155
 **** Fit       0.004192
 **** Fit       0.003121
 **** Fit       0.006095
 **** Fit       0.006008
 **** Fit       0.005640
 **** Fit       0.005008
 **** Fit       0.004174
 **** Fit       0.004846
 **** Fit       0.005119
 **** Fit       0.004665
 **** Fit       0.004044
 **** Fit       0.004834
 **** Fit       0.004451
 **** Fit       0.003917
 **** Fit       0.004196
 **** Fit       0.002601
 **** Fit       0.002192
 **** Fit       0.001622
 **** Fit       0.003511
 **** Fit       0.003285
 **** Fit       0.002841
 **** Fit       0.002204
 **** Fit       0.001431
 **** Fit       0.004142
 **** Fit       0.004159
 **** Fit       0.003941
 **** Fit       0.003470
 **** Fit       0.002774
 **** Fit       0.001923
 **** Fit       0.001003
 **** Fit       0.004411
 **** Fit       0.004662
 **** Fit       0.004713
 **** Fit       0.004506
 **** Fit       0.004020
 **** Fit       0.003285
 **** Fit       0.002378
 **** Fit       0.001397
 **** Fit       0.004761
 **** Fit       0.005044
 **** Fit       0.005120
 **** Fit       0.004927
 **** Fit       0.004442
 **** Fit       0.003694
 **** Fit       0.002764
 **** Fit       0.001755
 **** Fit       0.005265
 **** Fit       0.005354
 **** Fit       0.005175
 **** Fit       0.004706
 **** Fit       0.003974
 **** Fit       0.003059
 **** Fit       0.002061
 **** Fit       0.005331
 **** Fit       0.005421
 **** Fit       0.005257
 **** Fit       0.004818
 **** Fit       0.004129
 **** Fit       0.003262
 **** Fit       0.002310
 **** Fit       0.005356
 **** Fit       0.005208
 **** Fit       0.004809
 **** Fit       0.004181
 **** Fit       0.003385
 -----------------------------------------------------------------
 Leave Link  602 at Thu Apr 21 16:49:33 2022, MaxMem=   104857600 cpu:               2.3 elap:               2.3
 (Enter /opt/ohpc/pub/libs/gaussian/g16-A.03/haswell/g16/l9999.exe)

 Test job not archived.
 1\1\GINC-CASCADEB056\SP\RB3LYP\6-311++G(d,p)\C8H15N1O2\MNG228\21-Apr-2
 022\0\\#P B3LYP/6-311++G(d,p) Geom=Allcheck SCF=Tight EmpiricalDispers
 ion=GD3BJ Pop=CHELPG SP IOp(6/33=2)\\DMAEMA geo opt\\0,1\H,0,3.3800956
 654,-1.7149668721,-0.6535226891\C,0,3.0882406057,-0.8855808928,-0.0216
 637317\H,0,3.6075138555,0.058202152,-0.1411747416\C,0,2.11194272,-1.02
 86700541,0.8774852335\C,0,1.4495084196,-2.3684385053,0.9640592679\O,0,
 1.6970741029,-3.3162518108,0.2546313941\O,0,0.541488109,-2.394336407,1
 .9660023939\C,0,-0.2967224463,-3.5594792258,2.0775619867\H,0,0.1865989
 475,-4.3986158835,1.5801168526\H,0,-0.3759476119,-3.7713354377,3.14475
 32525\C,0,-1.6776129331,-3.2574101493,1.5115560356\H,0,-2.328161865,-4
 .1293290097,1.7259446015\H,0,-2.090251939,-2.4068154981,2.060534973\N,
 0,-1.6654480305,-2.9166248635,0.0975971074\C,0,-1.364804358,-4.0568911
 757,-0.7595539171\H,0,-2.1115480759,-4.8667324247,-0.6574919224\H,0,-1
 .3555138307,-3.7304192127,-1.8012677384\H,0,-0.3751769912,-4.451529251
 ,-0.5329160115\C,0,-2.9019781603,-2.261862624,-0.3031067914\H,0,-3.788
 0970653,-2.9167415372,-0.2033352299\H,0,-3.0657782955,-1.370516539,0.3
 068673663\H,0,-2.8290958027,-1.9505063681,-1.3474012016\C,0,1.64379571
 82,0.0732660188,1.7870559652\H,0,1.762030492,-0.2053912707,2.837150003
 2\H,0,2.2091957492,0.9878033284,1.6008892548\H,0,0.5813530204,0.279073
 5136,1.6339282866\\Version=ES64L-G16RevA.03\State=1-A\HF=-519.2548845\
 RMSD=2.434e-09\Dipole=-0.5717403,0.3795519,0.4053576\Quadrupole=-0.062
 6223,0.3591014,-0.2964791,3.7065161,-0.036907,-1.4739172\PG=C01 [X(C8H
 15N1O2)]\\@


 WISDOM IS KNOWING WHAT TO DO,
 SKILL IS KNOWING HOW TO DO IT,
 AND VIRTUE IS NOT DOING IT.
 Job cpu time:       0 days  0 hours  5 minutes 45.4 seconds.
 Elapsed time:       0 days  0 hours  5 minutes 47.0 seconds.
 File lengths (MBytes):  RWF=    304 Int=      0 D2E=      0 Chk=     32 Scr=     32
 Normal termination of Gaussian 16 at Thu Apr 21 16:49:33 2022.
