 Entering Gaussian System, Link 0=g16
 Initial command:
 /opt/ohpc/pub/libs/gaussian/g16-A.03/haswell/g16/l1.exe "g16_scratch/Gau-264686.inp" -scrdir="g16_scratch/"
 Entering Link 1 = /opt/ohpc/pub/libs/gaussian/g16-A.03/haswell/g16/l1.exe PID=    264687.
  
 Copyright (c) 1988,1990,1992,1993,1995,1998,2003,2009,2016,
            Gaussian, Inc.  All Rights Reserved.
  
 This is part of the Gaussian(R) 16 program.  It is based on
 the Gaussian(R) 09 system (copyright 2009, Gaussian, Inc.),
 the Gaussian(R) 03 system (copyright 2003, Gaussian, Inc.),
 the Gaussian(R) 98 system (copyright 1998, Gaussian, Inc.),
 the Gaussian(R) 94 system (copyright 1995, Gaussian, Inc.),
 the Gaussian 92(TM) system (copyright 1992, Gaussian, Inc.),
 the Gaussian 90(TM) system (copyright 1990, Gaussian, Inc.),
 the Gaussian 88(TM) system (copyright 1988, Gaussian, Inc.),
 the Gaussian 86(TM) system (copyright 1986, Carnegie Mellon
 University), and the Gaussian 82(TM) system (copyright 1983,
 Carnegie Mellon University). Gaussian is a federally registered
 trademark of Gaussian, Inc.
  
 This software contains proprietary and confidential information,
 including trade secrets, belonging to Gaussian, Inc.
  
 This software is provided under written license and may be
 used, copied, transmitted, or stored only in accord with that
 written license.
  
 The following legend is applicable only to US Government
 contracts under FAR:
  
                    RESTRICTED RIGHTS LEGEND
  
 Use, reproduction and disclosure by the US Government is
 subject to restrictions as set forth in subparagraphs (a)
 and (c) of the Commercial Computer Software - Restricted
 Rights clause in FAR 52.227-19.
  
 Gaussian, Inc.
 340 Quinnipiac St., Bldg. 40, Wallingford CT 06492
  
  
 ---------------------------------------------------------------
 Warning -- This program may not be used in any manner that
 competes with the business of Gaussian, Inc. or will provide
 assistance to any competitor of Gaussian, Inc.  The licensee
 of this program is prohibited from giving any competitor of
 Gaussian, Inc. access to this program.  By using this program,
 the user acknowledges that Gaussian, Inc. is engaged in the
 business of creating and licensing software in the field of
 computational chemistry and represents and warrants to the
 licensee that it is not a competitor of Gaussian, Inc. and that
 it will not use this program in any manner prohibited above.
 ---------------------------------------------------------------
  

 Cite this work as:
 Gaussian 16, Revision A.03,
 M. J. Frisch, G. W. Trucks, H. B. Schlegel, G. E. Scuseria, 
 M. A. Robb, J. R. Cheeseman, G. Scalmani, V. Barone, 
 G. A. Petersson, H. Nakatsuji, X. Li, M. Caricato, A. V. Marenich, 
 J. Bloino, B. G. Janesko, R. Gomperts, B. Mennucci, H. P. Hratchian, 
 J. V. Ortiz, A. F. Izmaylov, J. L. Sonnenberg, D. Williams-Young, 
 F. Ding, F. Lipparini, F. Egidi, J. Goings, B. Peng, A. Petrone, 
 T. Henderson, D. Ranasinghe, V. G. Zakrzewski, J. Gao, N. Rega, 
 G. Zheng, W. Liang, M. Hada, M. Ehara, K. Toyota, R. Fukuda, 
 J. Hasegawa, M. Ishida, T. Nakajima, Y. Honda, O. Kitao, H. Nakai, 
 T. Vreven, K. Throssell, J. A. Montgomery, Jr., J. E. Peralta, 
 F. Ogliaro, M. J. Bearpark, J. J. Heyd, E. N. Brothers, K. N. Kudin, 
 V. N. Staroverov, T. A. Keith, R. Kobayashi, J. Normand, 
 K. Raghavachari, A. P. Rendell, J. C. Burant, S. S. Iyengar, 
 J. Tomasi, M. Cossi, J. M. Millam, M. Klene, C. Adamo, R. Cammi, 
 J. W. Ochterski, R. L. Martin, K. Morokuma, O. Farkas, 
 J. B. Foresman, and D. J. Fox, Gaussian, Inc., Wallingford CT, 2016.
 
 ******************************************
 Gaussian 16:  ES64L-G16RevA.03 25-Dec-2016
                21-Apr-2022 
 ******************************************
 %Mem=192GB
 %NProcShared=48
 Will use up to   48 processors via shared memory.
 %Chk=DMAEMA-5.chk
 ---------------------------------------------------------------------
 #n B3LYP/6-311++G(d,p) Opt freq EmpiricalDispersion=GD3BJ IOp(6/33=2)
 ---------------------------------------------------------------------
 1/18=20,19=15,26=3,38=1/1,3;
 2/9=110,12=2,17=6,18=5,40=1/2;
 3/5=4,6=6,7=1111,11=2,25=1,30=1,71=1,74=-5,124=41/1,2,3;
 4//1;
 5/5=2,38=5/2;
 6/7=2,8=2,9=2,10=2,28=1,33=2/1;
 7//1,2,3,16;
 1/18=20,19=15,26=3/3(2);
 2/9=110/2;
 99//99;
 2/9=110/2;
 3/5=4,6=6,7=1111,11=2,25=1,30=1,71=1,74=-5,124=41/1,2,3;
 4/5=5,16=3,69=1/1;
 5/5=2,38=5/2;
 7//1,2,3,16;
 1/18=20,19=15,26=3/3(-5);
 2/9=110/2;
 6/7=2,8=2,9=2,10=2,19=2,28=1,33=2/1;
 99/9=1/99;
 --------------
 DMAEMA geo opt
 --------------
 Symbolic Z-matrix:
 Charge =  0 Multiplicity = 1
 H                    -0.6572    0.2849   -2.0371 
 C                    -0.733     0.5826   -0.995 
 H                    -1.0332    1.609    -0.8031 
 C                    -0.4757   -0.26      0.0186 
 C                    -0.0674   -1.6785   -0.2002 
 O                    -0.2733   -2.2739   -1.2454 
 O                     0.5591   -2.2054    0.8881 
 C                    -0.1173   -3.3578    1.4176 
 H                     0.138    -4.2363    0.8138 
 H                     0.2239   -3.5058    2.4474 
 C                    -1.6382   -3.1351    1.3902 
 H                    -2.1394   -3.9818    1.878 
 H                    -1.8513   -2.2609    2.0209 
 N                    -2.1863   -2.9004    0.0386 
 C                    -1.9374   -4.0257   -0.8654 
 H                    -2.3545   -4.9631   -0.481 
 H                    -2.3736   -3.8317   -1.8517 
 H                    -0.8667   -4.1654   -1.0428 
 C                    -3.6271   -2.6419    0.1101 
 H                    -4.18     -3.4965    0.5174 
 H                    -3.8356   -1.7645    0.7315 
 H                    -4.0268   -2.4202   -0.8866 
 C                    -0.5972    0.1935    1.4453 
 H                     0.0925    1.0213    1.6435 
 H                    -1.6181    0.5335    1.6507 
 H                    -0.3698   -0.5963    2.167 
 

 GradGradGradGradGradGradGradGradGradGradGradGradGradGradGradGradGradGrad
 Berny optimization.
 Initialization pass.
                           ----------------------------
                           !    Initial Parameters    !
                           ! (Angstroms and Degrees)  !
 --------------------------                            --------------------------
 ! Name  Definition              Value          Derivative Info.                !
 --------------------------------------------------------------------------------
 ! R1    R(1,2)                  1.0864         estimate D2E/DX2                !
 ! R2    R(2,3)                  1.0865         estimate D2E/DX2                !
 ! R3    R(2,4)                  1.343          estimate D2E/DX2                !
 ! R4    R(4,5)                  1.4922         estimate D2E/DX2                !
 ! R5    R(4,23)                 1.502          estimate D2E/DX2                !
 ! R6    R(5,6)                  1.2204         estimate D2E/DX2                !
 ! R7    R(5,7)                  1.3618         estimate D2E/DX2                !
 ! R8    R(7,8)                  1.4373         estimate D2E/DX2                !
 ! R9    R(8,9)                  1.0961         estimate D2E/DX2                !
 ! R10   R(8,10)                 1.0949         estimate D2E/DX2                !
 ! R11   R(8,11)                 1.5374         estimate D2E/DX2                !
 ! R12   R(11,12)                1.0982         estimate D2E/DX2                !
 ! R13   R(11,13)                1.0988         estimate D2E/DX2                !
 ! R14   R(11,14)                1.4773         estimate D2E/DX2                !
 ! R15   R(14,15)                1.4647         estimate D2E/DX2                !
 ! R16   R(14,19)                1.4656         estimate D2E/DX2                !
 ! R17   R(15,16)                1.0957         estimate D2E/DX2                !
 ! R18   R(15,17)                1.0958         estimate D2E/DX2                !
 ! R19   R(15,18)                1.0943         estimate D2E/DX2                !
 ! R20   R(19,20)                1.0963         estimate D2E/DX2                !
 ! R21   R(19,21)                1.0952         estimate D2E/DX2                !
 ! R22   R(19,22)                1.0965         estimate D2E/DX2                !
 ! R23   R(23,24)                1.0955         estimate D2E/DX2                !
 ! R24   R(23,25)                1.0955         estimate D2E/DX2                !
 ! R25   R(23,26)                1.0938         estimate D2E/DX2                !
 ! A1    A(1,2,3)              116.5871         estimate D2E/DX2                !
 ! A2    A(1,2,4)              122.5923         estimate D2E/DX2                !
 ! A3    A(3,2,4)              120.8205         estimate D2E/DX2                !
 ! A4    A(2,4,5)              122.5596         estimate D2E/DX2                !
 ! A5    A(2,4,23)             120.7962         estimate D2E/DX2                !
 ! A6    A(5,4,23)             116.6433         estimate D2E/DX2                !
 ! A7    A(4,5,6)              122.9011         estimate D2E/DX2                !
 ! A8    A(4,5,7)              112.1169         estimate D2E/DX2                !
 ! A9    A(6,5,7)              124.9801         estimate D2E/DX2                !
 ! A10   A(5,7,8)              112.8375         estimate D2E/DX2                !
 ! A11   A(7,8,9)              109.2714         estimate D2E/DX2                !
 ! A12   A(7,8,10)             107.9516         estimate D2E/DX2                !
 ! A13   A(7,8,11)             110.0505         estimate D2E/DX2                !
 ! A14   A(9,8,10)             109.705          estimate D2E/DX2                !
 ! A15   A(9,8,11)             109.6756         estimate D2E/DX2                !
 ! A16   A(10,8,11)            110.1594         estimate D2E/DX2                !
 ! A17   A(8,11,12)            109.3838         estimate D2E/DX2                !
 ! A18   A(8,11,13)            107.2699         estimate D2E/DX2                !
 ! A19   A(8,11,14)            113.9771         estimate D2E/DX2                !
 ! A20   A(12,11,13)           105.6596         estimate D2E/DX2                !
 ! A21   A(12,11,14)           111.073          estimate D2E/DX2                !
 ! A22   A(13,11,14)           109.0746         estimate D2E/DX2                !
 ! A23   A(11,14,15)           112.307          estimate D2E/DX2                !
 ! A24   A(11,14,19)           110.3738         estimate D2E/DX2                !
 ! A25   A(15,14,19)           109.4313         estimate D2E/DX2                !
 ! A26   A(14,15,16)           112.0907         estimate D2E/DX2                !
 ! A27   A(14,15,17)           110.6011         estimate D2E/DX2                !
 ! A28   A(14,15,18)           111.3712         estimate D2E/DX2                !
 ! A29   A(16,15,17)           108.4045         estimate D2E/DX2                !
 ! A30   A(16,15,18)           108.6716         estimate D2E/DX2                !
 ! A31   A(17,15,18)           105.4376         estimate D2E/DX2                !
 ! A32   A(14,19,20)           112.113          estimate D2E/DX2                !
 ! A33   A(14,19,21)           110.8641         estimate D2E/DX2                !
 ! A34   A(14,19,22)           110.4679         estimate D2E/DX2                !
 ! A35   A(20,19,21)           108.5235         estimate D2E/DX2                !
 ! A36   A(20,19,22)           108.1478         estimate D2E/DX2                !
 ! A37   A(21,19,22)           106.5211         estimate D2E/DX2                !
 ! A38   A(4,23,24)            110.4303         estimate D2E/DX2                !
 ! A39   A(4,23,25)            110.3166         estimate D2E/DX2                !
 ! A40   A(4,23,26)            113.0738         estimate D2E/DX2                !
 ! A41   A(24,23,25)           108.5578         estimate D2E/DX2                !
 ! A42   A(24,23,26)           107.1788         estimate D2E/DX2                !
 ! A43   A(25,23,26)           107.1067         estimate D2E/DX2                !
 ! D1    D(1,2,4,5)             -0.1788         estimate D2E/DX2                !
 ! D2    D(1,2,4,23)          -179.8169         estimate D2E/DX2                !
 ! D3    D(3,2,4,5)            179.6936         estimate D2E/DX2                !
 ! D4    D(3,2,4,23)             0.0555         estimate D2E/DX2                !
 ! D5    D(2,4,5,6)            -20.0039         estimate D2E/DX2                !
 ! D6    D(2,4,5,7)            159.5143         estimate D2E/DX2                !
 ! D7    D(23,4,5,6)           159.6483         estimate D2E/DX2                !
 ! D8    D(23,4,5,7)           -20.8335         estimate D2E/DX2                !
 ! D9    D(2,4,23,24)          -60.5609         estimate D2E/DX2                !
 ! D10   D(2,4,23,25)           59.4436         estimate D2E/DX2                !
 ! D11   D(2,4,23,26)          179.355          estimate D2E/DX2                !
 ! D12   D(5,4,23,24)          119.7803         estimate D2E/DX2                !
 ! D13   D(5,4,23,25)         -120.2152         estimate D2E/DX2                !
 ! D14   D(5,4,23,26)           -0.3037         estimate D2E/DX2                !
 ! D15   D(4,5,7,8)            120.4934         estimate D2E/DX2                !
 ! D16   D(6,5,7,8)            -60.0003         estimate D2E/DX2                !
 ! D17   D(5,7,8,9)             80.0001         estimate D2E/DX2                !
 ! D18   D(5,7,8,10)          -160.7415         estimate D2E/DX2                !
 ! D19   D(5,7,8,11)           -40.484          estimate D2E/DX2                !
 ! D20   D(7,8,11,12)         -174.9949         estimate D2E/DX2                !
 ! D21   D(7,8,11,13)          -60.8508         estimate D2E/DX2                !
 ! D22   D(7,8,11,14)           60.0007         estimate D2E/DX2                !
 ! D23   D(9,8,11,12)           64.7649         estimate D2E/DX2                !
 ! D24   D(9,8,11,13)          178.909          estimate D2E/DX2                !
 ! D25   D(9,8,11,14)          -60.2394         estimate D2E/DX2                !
 ! D26   D(10,8,11,12)         -56.0806         estimate D2E/DX2                !
 ! D27   D(10,8,11,13)          58.0635         estimate D2E/DX2                !
 ! D28   D(10,8,11,14)         178.915          estimate D2E/DX2                !
 ! D29   D(8,11,14,15)          60.0017         estimate D2E/DX2                !
 ! D30   D(8,11,14,19)        -177.59           estimate D2E/DX2                !
 ! D31   D(12,11,14,15)        -64.0987         estimate D2E/DX2                !
 ! D32   D(12,11,14,19)         58.3095         estimate D2E/DX2                !
 ! D33   D(13,11,14,15)        179.8413         estimate D2E/DX2                !
 ! D34   D(13,11,14,19)        -57.7504         estimate D2E/DX2                !
 ! D35   D(11,14,15,16)         57.672          estimate D2E/DX2                !
 ! D36   D(11,14,15,17)        178.7752         estimate D2E/DX2                !
 ! D37   D(11,14,15,18)        -64.3228         estimate D2E/DX2                !
 ! D38   D(19,14,15,16)        -65.2682         estimate D2E/DX2                !
 ! D39   D(19,14,15,17)         55.8349         estimate D2E/DX2                !
 ! D40   D(19,14,15,18)        172.7369         estimate D2E/DX2                !
 ! D41   D(11,14,19,20)        -62.0028         estimate D2E/DX2                !
 ! D42   D(11,14,19,21)         59.4536         estimate D2E/DX2                !
 ! D43   D(11,14,19,22)        177.2992         estimate D2E/DX2                !
 ! D44   D(15,14,19,20)         62.0782         estimate D2E/DX2                !
 ! D45   D(15,14,19,21)       -176.4654         estimate D2E/DX2                !
 ! D46   D(15,14,19,22)        -58.6198         estimate D2E/DX2                !
 --------------------------------------------------------------------------------
 Trust Radius=3.00D-01 FncErr=1.00D-07 GrdErr=1.00D-06 EigMax=2.50D+02 EigMin=1.00D-04
 Number of steps in this run=    124 maximum allowed number of steps=    156.
 GradGradGradGradGradGradGradGradGradGradGradGradGradGradGradGradGradGrad

                          Input orientation:                          
 ---------------------------------------------------------------------
 Center     Atomic      Atomic             Coordinates (Angstroms)
 Number     Number       Type             X           Y           Z
 ---------------------------------------------------------------------
      1          1           0       -0.657200    0.284900   -2.037100
      2          6           0       -0.733000    0.582600   -0.995000
      3          1           0       -1.033200    1.609000   -0.803100
      4          6           0       -0.475700   -0.260000    0.018600
      5          6           0       -0.067400   -1.678500   -0.200200
      6          8           0       -0.273300   -2.273900   -1.245400
      7          8           0        0.559100   -2.205400    0.888100
      8          6           0       -0.117300   -3.357800    1.417600
      9          1           0        0.138000   -4.236300    0.813800
     10          1           0        0.223900   -3.505800    2.447400
     11          6           0       -1.638200   -3.135100    1.390200
     12          1           0       -2.139400   -3.981800    1.878000
     13          1           0       -1.851300   -2.260900    2.020900
     14          7           0       -2.186300   -2.900400    0.038600
     15          6           0       -1.937400   -4.025700   -0.865400
     16          1           0       -2.354500   -4.963100   -0.481000
     17          1           0       -2.373600   -3.831700   -1.851700
     18          1           0       -0.866700   -4.165400   -1.042800
     19          6           0       -3.627100   -2.641900    0.110100
     20          1           0       -4.180000   -3.496500    0.517400
     21          1           0       -3.835600   -1.764500    0.731500
     22          1           0       -4.026800   -2.420200   -0.886600
     23          6           0       -0.597200    0.193500    1.445300
     24          1           0        0.092500    1.021300    1.643500
     25          1           0       -1.618100    0.533500    1.650700
     26          1           0       -0.369800   -0.596300    2.167000
 ---------------------------------------------------------------------
                    Distance matrix (angstroms):
                    1          2          3          4          5
     1  H    0.000000
     2  C    1.086436   0.000000
     3  H    1.848614   1.086482   0.000000
     4  C    2.134423   1.342968   2.116402   0.000000
     5  C    2.752636   2.487429   3.479068   1.492221   0.000000
     6  O    2.705850   2.904069   3.981205   2.386306   1.220385
     7  O    4.029612   3.603961   4.466008   2.368844   1.361809
     8  C    5.049327   4.661167   5.517199   3.417896   2.332341
     9  H    5.403816   5.220364   6.176861   4.101211   2.759117
    10  H    5.937717   5.429622   6.189283   4.113846   3.230119
    11  C    4.940157   4.508865   5.261471   3.391002   2.668046
    12  H    5.977429   5.573674   6.298335   4.480743   3.730588
    13  H    4.937037   4.293220   4.860081   3.147234   2.907709
    14  N    4.097904   3.913017   4.729988   3.146151   2.457601
    15  C    4.646834   4.764851   5.707127   4.135036   3.073880
    16  H    5.730949   5.800711   6.711340   5.089071   4.012265
    17  H    4.463944   4.786601   5.700654   4.456129   3.561219
    18  H    4.564832   4.750123   5.781771   4.065907   2.744727
    19  C    4.690089   4.471517   5.062845   3.951347   3.700796
    20  H    5.764944   5.550515   6.141026   4.944246   4.553411
    21  H    4.686941   4.256267   4.646391   3.749757   3.882627
    22  H    4.471624   4.458439   5.020266   4.253958   4.086332
    23  C    3.484116   2.474854   2.692404   1.501965   2.548086
    24  H    3.827682   2.799212   2.756527   2.145899   3.273182
    25  H    3.819031   2.790258   2.742251   2.144404   3.274667
    26  H    4.305063   3.394107   3.758316   2.177139   2.620351
                    6          7          8          9         10
     6  O    0.000000
     7  O    2.291158   0.000000
     8  C    2.879365   1.437328   0.000000
     9  H    2.874106   2.075428   1.096136   0.000000
    10  H    3.924482   2.057867   1.094902   1.791552   0.000000
    11  C    3.090470   2.438150   1.537362   2.167894   2.173133
    12  H    4.019313   3.378965   2.165694   2.526627   2.477091
    13  H    3.627529   2.663896   2.138672   3.052312   2.457261
    14  N    2.387620   2.956670   2.528165   2.790687   3.460909
    15  C    2.445901   3.552572   2.995153   2.677938   3.989506
    16  H    3.485326   4.238916   3.344658   2.901259   4.165021
    17  H    2.684325   4.330368   4.000474   3.684661   5.033436
    18  H    1.992722   3.098851   2.695809   2.112206   3.715639
    19  C    3.636039   4.280197   3.813236   4.148889   4.586883
    20  H    4.456963   4.925792   4.163548   4.390932   4.808256
    21  H    4.105801   4.419537   4.103059   4.680392   4.738774
    22  H    3.773447   4.922010   4.633856   4.851303   5.510221
    23  C    3.665084   2.720703   3.583686   4.534583   3.919596
    24  H    4.397487   3.346631   4.389939   5.322859   4.599800
    25  H    4.251750   3.580968   4.177194   5.151241   4.510392
    26  H    3.803699   2.255580   2.872497   3.916454   2.982666
                   11         12         13         14         15
    11  C    0.000000
    12  H    1.098204   0.000000
    13  H    1.098827   1.750691   0.000000
    14  N    1.477268   2.134249   2.109668   0.000000
    15  C    2.443444   2.751177   3.384178   1.464741   0.000000
    16  H    2.712206   2.564001   3.716800   2.133778   1.095653
    17  H    3.396466   3.740059   4.211560   2.115570   1.095762
    18  H    2.752493   3.191324   3.739360   2.123910   1.094251
    19  C    2.416118   2.670965   2.636244   1.465551   2.391984
    20  H    2.711667   2.500159   3.034809   2.135281   2.687274
    21  H    2.672264   3.017942   2.417935   2.119096   3.356528
    22  H    3.376435   3.693763   3.634795   2.115190   2.635085
    23  C    3.488022   4.471995   2.815699   3.751834   4.993708
    24  H    4.509451   5.483373   3.833227   4.811275   5.990599
    25  H    3.677892   4.550973   2.828445   3.835803   5.217185
    26  H    2.942408   3.831007   2.233177   3.624726   4.838761
                   16         17         18         19         20
    16  H    0.000000
    17  H    1.777428   0.000000
    18  H    1.779183   1.742533   0.000000
    19  C    2.712357   2.614488   3.357088   0.000000
    20  H    2.545617   2.998012   3.722849   1.096327   0.000000
    21  H    3.727580   3.617137   4.210324   1.095190   1.778841
    22  H    3.070413   2.378407   3.613358   1.096504   1.775699
    23  C    5.778344   5.498003   5.026259   4.359191   5.226237
    24  H    6.805465   6.469133   5.919301   5.441119   6.319246
    25  H    5.941300   5.647350   5.468017   4.061120   4.908014
    26  H    5.479040   5.534707   4.825785   4.361802   5.064579
                   21         22         23         24         25
    21  H    0.000000
    22  H    1.756345   0.000000
    23  C    3.851040   4.902177   0.000000
    24  H    4.901265   5.934135   1.095547   0.000000
    25  H    3.323107   4.578654   1.095457   1.778807   0.000000
    26  H    3.929010   5.101444   1.093776   1.761932   1.761041
                   26
    26  H    0.000000
 Stoichiometry    C8H15NO2
 Framework group  C1[X(C8H15NO2)]
 Deg. of freedom    72
 Full point group                 C1      NOp   1
 Largest Abelian subgroup         C1      NOp   1
 Largest concise Abelian subgroup C1      NOp   1
                         Standard orientation:                         
 ---------------------------------------------------------------------
 Center     Atomic      Atomic             Coordinates (Angstroms)
 Number     Number       Type             X           Y           Z
 ---------------------------------------------------------------------
      1          1           0       -2.194680   -1.917156   -1.435090
      2          6           0       -2.446212   -1.463339   -0.480561
      3          1           0       -3.223203   -1.952218    0.100580
      4          6           0       -1.838271   -0.356658   -0.023148
      5          6           0       -0.762417    0.341972   -0.785499
      6          8           0       -0.116964   -0.199516   -1.668403
      7          8           0       -0.606157    1.633999   -0.384534
      8          6           0        0.716676    1.910011    0.105205
      9          1           0        1.391812    2.065433   -0.744235
     10          1           0        0.669140    2.821131    0.710524
     11          6           0        1.219383    0.733361    0.957416
     12          1           0        2.191150    0.991997    1.398809
     13          1           0        0.528074    0.625443    1.804685
     14          7           0        1.292008   -0.548792    0.227258
     15          6           0        2.195537   -0.482736   -0.923715
     16          1           0        3.211313   -0.191681   -0.633990
     17          1           0        2.245028   -1.452641   -1.431188
     18          1           0        1.830661    0.221939   -1.677163
     19          6           0        1.723980   -1.623517    1.125148
     20          1           0        2.728259   -1.446387    1.527616
     21          1           0        1.027911   -1.734941    1.963309
     22          1           0        1.732312   -2.584356    0.596905
     23          6           0       -2.215247    0.234618    1.305076
     24          1           0       -3.271565    0.525142    1.308384
     25          1           0       -2.051667   -0.494446    2.106159
     26          1           0       -1.634203    1.126155    1.557850
 ---------------------------------------------------------------------
 Rotational constants (GHZ):           1.4783287           0.9368421           0.8496802
 Standard basis: 6-311++G(d,p) (5D, 7F)
 There are   358 symmetry adapted cartesian basis functions of A   symmetry.
 There are   347 symmetry adapted basis functions of A   symmetry.
   347 basis functions,   531 primitive gaussians,   358 cartesian basis functions
    43 alpha electrons       43 beta electrons
       nuclear repulsion energy       692.8178303817 Hartrees.
 NAtoms=   26 NActive=   26 NUniq=   26 SFac= 1.00D+00 NAtFMM=   60 NAOKFM=F Big=F
 Integral buffers will be    131072 words long.
 Raffenetti 2 integral format.
 Two-electron integral symmetry is turned on.
 Nuclear repulsion after empirical dispersion term =      692.7720557627 Hartrees.
 One-electron integrals computed using PRISM.
 NBasis=   347 RedAO= T EigKep=  6.37D-06  NBF=   347
 NBsUse=   347 1.00D-06 EigRej= -1.00D+00 NBFU=   347
 ExpMin= 3.60D-02 ExpMax= 8.59D+03 ExpMxC= 1.30D+03 IAcc=3 IRadAn=         5 AccDes= 0.00D+00
 Harris functional with IExCor=  402 and IRadAn=       5 diagonalized for initial guess.
 HarFok:  IExCor=  402 AccDes= 0.00D+00 IRadAn=         5 IDoV= 1 UseB2=F ITyADJ=14
 ICtDFT=  3500011 ScaDFX=  1.000000  1.000000  1.000000  1.000000
 FoFCou: FMM=F IPFlag=           0 FMFlag=      100000 FMFlg1=           0
         NFxFlg=           0 DoJE=T BraDBF=F KetDBF=T FulRan=T
         wScrn=  0.000000 ICntrl=       500 IOpCl=  0 I1Cent=   200000004 NGrid=           0
         NMat0=    1 NMatS0=      1 NMatT0=    0 NMatD0=    1 NMtDS0=    0 NMtDT0=    0
 Petite list used in FoFCou.
 Requested convergence on RMS density matrix=1.00D-08 within 128 cycles.
 Requested convergence on MAX density matrix=1.00D-06.
 Requested convergence on             energy=1.00D-06.
 No special actions if energy rises.
 SCF Done:  E(RB3LYP) =  -519.202356712     A.U. after   14 cycles
            NFock= 14  Conv=0.65D-08     -V/T= 2.0040
 SCF density gives NOpUse=  1 NOpAll=  1.

 **********************************************************************

            Population analysis using the SCF density.

 **********************************************************************

 Orbital symmetries:
 BldTbl:  Degeneracy threshold= 1.00D-02
       Occupied  (A) (A) (A) (A) (A) (A) (A) (A) (A) (A) (A) (A)
                 (A) (A) (A) (A) (A) (A) (A) (A) (A) (A) (A) (A)
                 (A) (A) (A) (A) (A) (A) (A) (A) (A) (A) (A) (A)
                 (A) (A) (A) (A) (A) (A) (A)
       Virtual   (A) (A) (A) (A) (A) (A) (A) (A) (A) (A) (A) (A)
                 (A) (A) (A) (A) (A) (A) (A) (A) (A) (A) (A) (A)
                 (A) (A) (A) (A) (A) (A) (A) (A) (A) (A) (A) (A)
                 (A) (A) (A) (A) (A) (A) (A) (A) (A) (A) (A) (A)
                 (A) (A) (A) (A) (A) (A) (A) (A) (A) (A) (A) (A)
                 (A) (A) (A) (A) (A) (A) (A) (A) (A) (A) (A) (A)
                 (A) (A) (A) (A) (A) (A) (A) (A) (A) (A) (A) (A)
                 (A) (A) (A) (A) (A) (A) (A) (A) (A) (A) (A) (A)
                 (A) (A) (A) (A) (A) (A) (A) (A) (A) (A) (A) (A)
                 (A) (A) (A) (A) (A) (A) (A) (A) (A) (A) (A) (A)
                 (A) (A) (A) (A) (A) (A) (A) (A) (A) (A) (A) (A)
                 (A) (A) (A) (A) (A) (A) (A) (A) (A) (A) (A) (A)
                 (A) (A) (A) (A) (A) (A) (A) (A) (A) (A) (A) (A)
                 (A) (A) (A) (A) (A) (A) (A) (A) (A) (A) (A) (A)
                 (A) (A) (A) (A) (A) (A) (A) (A) (A) (A) (A) (A)
                 (A) (A) (A) (A) (A) (A) (A) (A) (A) (A) (A) (A)
                 (A) (A) (A) (A) (A) (A) (A) (A) (A) (A) (A) (A)
                 (A) (A) (A) (A) (A) (A) (A) (A) (A) (A) (A) (A)
                 (A) (A) (A) (A) (A) (A) (A) (A) (A) (A) (A) (A)
                 (A) (A) (A) (A) (A) (A) (A) (A) (A) (A) (A) (A)
                 (A) (A) (A) (A) (A) (A) (A) (A) (A) (A) (A) (A)
                 (A) (A) (A) (A) (A) (A) (A) (A) (A) (A) (A) (A)
                 (A) (A) (A) (A) (A) (A) (A) (A) (A) (A) (A) (A)
                 (A) (A) (A) (A) (A) (A) (A) (A) (A) (A) (A) (A)
                 (A) (A) (A) (A) (A) (A) (A) (A) (A) (A) (A) (A)
                 (A) (A) (A) (A)
 The electronic state is 1-A.
 Alpha  occ. eigenvalues --  -19.15444 -19.09735 -14.30876 -10.29832 -10.24072
 Alpha  occ. eigenvalues --  -10.20860 -10.19223 -10.18910 -10.17838 -10.17460
 Alpha  occ. eigenvalues --  -10.16796  -1.09970  -1.01441  -0.92504  -0.81310
 Alpha  occ. eigenvalues --   -0.76621  -0.70487  -0.69556  -0.68504  -0.62005
 Alpha  occ. eigenvalues --   -0.58937  -0.54258  -0.51426  -0.50603  -0.48414
 Alpha  occ. eigenvalues --   -0.47240  -0.46134  -0.44428  -0.43000  -0.42441
 Alpha  occ. eigenvalues --   -0.41841  -0.40228  -0.39585  -0.38871  -0.37703
 Alpha  occ. eigenvalues --   -0.37066  -0.36528  -0.35217  -0.34569  -0.29688
 Alpha  occ. eigenvalues --   -0.27129  -0.26162  -0.21658
 Alpha virt. eigenvalues --   -0.05977  -0.01335   0.00188   0.00518   0.01189
 Alpha virt. eigenvalues --    0.02424   0.02565   0.02808   0.03298   0.03975
 Alpha virt. eigenvalues --    0.04971   0.05251   0.05673   0.05845   0.06554
 Alpha virt. eigenvalues --    0.06878   0.07403   0.08019   0.08537   0.09435
 Alpha virt. eigenvalues --    0.09780   0.10425   0.10517   0.11348   0.11692
 Alpha virt. eigenvalues --    0.11956   0.12296   0.12382   0.12856   0.13198
 Alpha virt. eigenvalues --    0.13491   0.13771   0.14024   0.14357   0.14447
 Alpha virt. eigenvalues --    0.15109   0.15650   0.15984   0.16173   0.16701
 Alpha virt. eigenvalues --    0.16800   0.17484   0.17829   0.18226   0.18636
 Alpha virt. eigenvalues --    0.19086   0.19743   0.19932   0.20504   0.21293
 Alpha virt. eigenvalues --    0.21816   0.22148   0.22852   0.23527   0.23891
 Alpha virt. eigenvalues --    0.24567   0.24833   0.25331   0.25922   0.26570
 Alpha virt. eigenvalues --    0.27218   0.27989   0.28468   0.28992   0.29962
 Alpha virt. eigenvalues --    0.30504   0.31193   0.31504   0.32369   0.32759
 Alpha virt. eigenvalues --    0.33933   0.34235   0.34522   0.35452   0.36044
 Alpha virt. eigenvalues --    0.36693   0.37396   0.38614   0.38904   0.39893
 Alpha virt. eigenvalues --    0.40568   0.41345   0.43198   0.44285   0.45527
 Alpha virt. eigenvalues --    0.46382   0.48023   0.50198   0.51018   0.54210
 Alpha virt. eigenvalues --    0.54650   0.55472   0.56064   0.56527   0.57873
 Alpha virt. eigenvalues --    0.59586   0.59913   0.60839   0.61043   0.62042
 Alpha virt. eigenvalues --    0.63401   0.63802   0.64865   0.66277   0.66975
 Alpha virt. eigenvalues --    0.67322   0.67442   0.68896   0.69120   0.71076
 Alpha virt. eigenvalues --    0.71626   0.72940   0.73451   0.74386   0.74606
 Alpha virt. eigenvalues --    0.75992   0.76582   0.77449   0.78090   0.79368
 Alpha virt. eigenvalues --    0.80327   0.81022   0.82670   0.83919   0.87052
 Alpha virt. eigenvalues --    0.89398   0.90671   0.91633   0.93033   0.94044
 Alpha virt. eigenvalues --    0.96944   1.00819   1.02227   1.03098   1.03673
 Alpha virt. eigenvalues --    1.05677   1.07586   1.09948   1.11756   1.12200
 Alpha virt. eigenvalues --    1.12889   1.16641   1.19224   1.22923   1.23566
 Alpha virt. eigenvalues --    1.25362   1.27552   1.31153   1.36323   1.37999
 Alpha virt. eigenvalues --    1.39606   1.41205   1.41989   1.43099   1.45979
 Alpha virt. eigenvalues --    1.46987   1.47729   1.50789   1.51243   1.51679
 Alpha virt. eigenvalues --    1.52645   1.53471   1.56257   1.57299   1.58609
 Alpha virt. eigenvalues --    1.59133   1.59985   1.60816   1.62060   1.63131
 Alpha virt. eigenvalues --    1.64791   1.65152   1.66015   1.67171   1.68106
 Alpha virt. eigenvalues --    1.69727   1.70410   1.71279   1.72674   1.74494
 Alpha virt. eigenvalues --    1.76164   1.77049   1.77271   1.79182   1.80312
 Alpha virt. eigenvalues --    1.82238   1.83048   1.84291   1.85522   1.87518
 Alpha virt. eigenvalues --    1.88622   1.89082   1.92660   1.95430   1.98872
 Alpha virt. eigenvalues --    2.03111   2.03457   2.04747   2.06108   2.06329
 Alpha virt. eigenvalues --    2.08784   2.10565   2.10907   2.13748   2.15375
 Alpha virt. eigenvalues --    2.17149   2.18660   2.22085   2.22615   2.26880
 Alpha virt. eigenvalues --    2.28368   2.29688   2.33759   2.35315   2.41588
 Alpha virt. eigenvalues --    2.46071   2.46412   2.46935   2.47714   2.49621
 Alpha virt. eigenvalues --    2.51405   2.52494   2.53291   2.55345   2.55433
 Alpha virt. eigenvalues --    2.56246   2.56947   2.60456   2.62268   2.63554
 Alpha virt. eigenvalues --    2.64130   2.66466   2.67383   2.69268   2.69928
 Alpha virt. eigenvalues --    2.70540   2.72739   2.73427   2.76693   2.76980
 Alpha virt. eigenvalues --    2.80375   2.80747   2.82876   2.84855   2.87474
 Alpha virt. eigenvalues --    2.87588   2.91624   2.93534   2.94552   2.94826
 Alpha virt. eigenvalues --    3.00134   3.01075   3.03201   3.03801   3.08000
 Alpha virt. eigenvalues --    3.09363   3.14268   3.16484   3.20145   3.27222
 Alpha virt. eigenvalues --    3.30902   3.32814   3.36877   3.40684   3.57385
 Alpha virt. eigenvalues --    3.59973   3.62554   3.69611   3.72730   3.76670
 Alpha virt. eigenvalues --    3.77751   3.78185   3.79070   3.80375   3.81389
 Alpha virt. eigenvalues --    3.82060   3.82310   3.85627   3.86457   4.01286
 Alpha virt. eigenvalues --    4.11814   4.18520   4.30291   4.31558   4.38460
 Alpha virt. eigenvalues --    4.85434   4.86496   5.14820   5.19448   5.29168
 Alpha virt. eigenvalues --    5.41932   5.65049   5.91084  23.73488  23.82681
 Alpha virt. eigenvalues --   23.86238  23.93900  23.95785  23.99090  23.99450
 Alpha virt. eigenvalues --   24.21973  35.55537  49.95655  50.04918
          Condensed to atoms (all electrons):
               1          2          3          4          5          6
     1  H    0.479866   0.334733  -0.025747   0.003650  -0.012945   0.007223
     2  C    0.334733   7.893187   0.410552  -0.821885  -0.358863  -0.003459
     3  H   -0.025747   0.410552   0.534153  -0.099271   0.069774  -0.001611
     4  C    0.003650  -0.821885  -0.099271   8.394910  -2.595492   0.024647
     5  C   -0.012945  -0.358863   0.069774  -2.595492  10.086300   0.277388
     6  O    0.007223  -0.003459  -0.001611   0.024647   0.277388   8.200324
     7  O    0.002811   0.040221  -0.003619  -0.180370   0.140995  -0.112012
     8  C   -0.005717   0.081207   0.001049   0.233050  -0.394937   0.017582
     9  H    0.000850   0.021448  -0.000293   0.042083  -0.089330   0.013396
    10  H   -0.000449  -0.012882   0.000465  -0.044521   0.089396  -0.008845
    11  C    0.002257  -0.160648   0.001573  -0.095747   0.200524  -0.041901
    12  H    0.000009  -0.018355  -0.000082  -0.002641  -0.005210  -0.020823
    13  H    0.000663   0.043781   0.000412   0.004941  -0.005522   0.016127
    14  N    0.001637  -0.047180  -0.001525  -0.018951  -0.054007  -0.141797
    15  C    0.004085  -0.019269  -0.001254   0.084524  -0.164581  -0.058567
    16  H    0.000031  -0.005924  -0.000034   0.004848  -0.006571   0.011793
    17  H   -0.000936  -0.001483   0.000173  -0.001565   0.005325  -0.018504
    18  H    0.001549   0.016801  -0.000172   0.002094  -0.004563  -0.020189
    19  C   -0.001206  -0.003511  -0.000199  -0.073197   0.098434   0.010900
    20  H    0.000145  -0.000330   0.000018  -0.003022  -0.002679  -0.005211
    21  H   -0.000286   0.020345   0.000147   0.019470  -0.024192   0.002774
    22  H   -0.000921  -0.008163   0.000394  -0.006406   0.025027  -0.001282
    23  C    0.016873  -0.915466  -0.026069   0.258099  -0.484903   0.020247
    24  H   -0.001164  -0.031935   0.000741  -0.056280   0.022146  -0.000479
    25  H   -0.000329   0.054911   0.000823  -0.058930  -0.041709  -0.000516
    26  H   -0.000686  -0.008309   0.000454   0.022571  -0.110686   0.002620
               7          8          9         10         11         12
     1  H    0.002811  -0.005717   0.000850  -0.000449   0.002257   0.000009
     2  C    0.040221   0.081207   0.021448  -0.012882  -0.160648  -0.018355
     3  H   -0.003619   0.001049  -0.000293   0.000465   0.001573  -0.000082
     4  C   -0.180370   0.233050   0.042083  -0.044521  -0.095747  -0.002641
     5  C    0.140995  -0.394937  -0.089330   0.089396   0.200524  -0.005210
     6  O   -0.112012   0.017582   0.013396  -0.008845  -0.041901  -0.020823
     7  O    8.147175   0.276176  -0.012678  -0.099695  -0.193450   0.010638
     8  C    0.276176   6.147251   0.365599   0.396052  -0.414227   0.014921
     9  H   -0.012678   0.365599   0.607531  -0.072797  -0.062391  -0.004513
    10  H   -0.099695   0.396052  -0.072797   0.576847   0.004194   0.004255
    11  C   -0.193450  -0.414227  -0.062391   0.004194   6.498429   0.377205
    12  H    0.010638   0.014921  -0.004513   0.004255   0.377205   0.702856
    13  H    0.010681  -0.062865   0.016090  -0.022892   0.428464  -0.087821
    14  N   -0.001651   0.018076  -0.009154   0.003971  -0.033413  -0.155207
    15  C    0.041311  -0.026127   0.026696  -0.014106  -0.182405   0.003427
    16  H   -0.005793   0.047664  -0.017819   0.005215  -0.047000   0.029248
    17  H    0.000743  -0.000984  -0.000074   0.000252   0.036433  -0.002168
    18  H   -0.002822  -0.034434   0.018087  -0.004144   0.003578   0.009294
    19  C   -0.010256  -0.074359  -0.012318   0.006708  -0.096616  -0.028754
    20  H    0.000693   0.018603   0.000762   0.000108  -0.003650   0.036815
    21  H   -0.001045  -0.001304  -0.000444   0.000158   0.001715  -0.004605
    22  H   -0.000274  -0.005760  -0.001765   0.000880   0.019352   0.000030
    23  C   -0.078296  -0.099494  -0.022485   0.024423  -0.024878   0.007069
    24  H   -0.004267   0.005733  -0.001401   0.001556  -0.003785  -0.000562
    25  H    0.004918   0.002925   0.001025  -0.001093  -0.001568   0.000564
    26  H    0.012228  -0.026531   0.007731  -0.014097   0.017247   0.004390
              13         14         15         16         17         18
     1  H    0.000663   0.001637   0.004085   0.000031  -0.000936   0.001549
     2  C    0.043781  -0.047180  -0.019269  -0.005924  -0.001483   0.016801
     3  H    0.000412  -0.001525  -0.001254  -0.000034   0.000173  -0.000172
     4  C    0.004941  -0.018951   0.084524   0.004848  -0.001565   0.002094
     5  C   -0.005522  -0.054007  -0.164581  -0.006571   0.005325  -0.004563
     6  O    0.016127  -0.141797  -0.058567   0.011793  -0.018504  -0.020189
     7  O    0.010681  -0.001651   0.041311  -0.005793   0.000743  -0.002822
     8  C   -0.062865   0.018076  -0.026127   0.047664  -0.000984  -0.034434
     9  H    0.016090  -0.009154   0.026696  -0.017819  -0.000074   0.018087
    10  H   -0.022892   0.003971  -0.014106   0.005215   0.000252  -0.004144
    11  C    0.428464  -0.033413  -0.182405  -0.047000   0.036433   0.003578
    12  H   -0.087821  -0.155207   0.003427   0.029248  -0.002168   0.009294
    13  H    0.603938  -0.080292   0.006597  -0.003906  -0.002821  -0.002178
    14  N   -0.080292   7.361663   0.278391  -0.096009  -0.057617  -0.028578
    15  C    0.006597   0.278391   5.345772   0.371916   0.416315   0.423068
    16  H   -0.003906  -0.096009   0.371916   0.689727  -0.052843  -0.055821
    17  H   -0.002821  -0.057617   0.416315  -0.052843   0.540595  -0.018083
    18  H   -0.002178  -0.028578   0.423068  -0.055821  -0.018083   0.546431
    19  C    0.007707   0.237390  -0.168307  -0.012209  -0.006297   0.000308
    20  H   -0.006905  -0.123502   0.008071   0.025307  -0.004222   0.003456
    21  H    0.007588  -0.060740   0.001385  -0.000396  -0.000385  -0.003798
    22  H   -0.002855  -0.060251  -0.012029  -0.003190   0.009073  -0.000270
    23  C   -0.027918   0.067983   0.026727   0.003683  -0.001808  -0.010549
    24  H   -0.001224   0.000236   0.000088   0.000056  -0.000073  -0.000401
    25  H    0.004168  -0.002262  -0.000598  -0.000088   0.000167  -0.000034
    26  H   -0.003466  -0.005184   0.004540  -0.001096   0.000260   0.001317
              19         20         21         22         23         24
     1  H   -0.001206   0.000145  -0.000286  -0.000921   0.016873  -0.001164
     2  C   -0.003511  -0.000330   0.020345  -0.008163  -0.915466  -0.031935
     3  H   -0.000199   0.000018   0.000147   0.000394  -0.026069   0.000741
     4  C   -0.073197  -0.003022   0.019470  -0.006406   0.258099  -0.056280
     5  C    0.098434  -0.002679  -0.024192   0.025027  -0.484903   0.022146
     6  O    0.010900  -0.005211   0.002774  -0.001282   0.020247  -0.000479
     7  O   -0.010256   0.000693  -0.001045  -0.000274  -0.078296  -0.004267
     8  C   -0.074359   0.018603  -0.001304  -0.005760  -0.099494   0.005733
     9  H   -0.012318   0.000762  -0.000444  -0.001765  -0.022485  -0.001401
    10  H    0.006708   0.000108   0.000158   0.000880   0.024423   0.001556
    11  C   -0.096616  -0.003650   0.001715   0.019352  -0.024878  -0.003785
    12  H   -0.028754   0.036815  -0.004605   0.000030   0.007069  -0.000562
    13  H    0.007707  -0.006905   0.007588  -0.002855  -0.027918  -0.001224
    14  N    0.237390  -0.123502  -0.060740  -0.060251   0.067983   0.000236
    15  C   -0.168307   0.008071   0.001385  -0.012029   0.026727   0.000088
    16  H   -0.012209   0.025307  -0.000396  -0.003190   0.003683   0.000056
    17  H   -0.006297  -0.004222  -0.000385   0.009073  -0.001808  -0.000073
    18  H    0.000308   0.003456  -0.003798  -0.000270  -0.010549  -0.000401
    19  C    5.172666   0.387051   0.406063   0.417621   0.026818   0.000193
    20  H    0.387051   0.658821  -0.057635  -0.051941   0.000102  -0.000201
    21  H    0.406063  -0.057635   0.597279  -0.017221  -0.009742   0.000693
    22  H    0.417621  -0.051941  -0.017221   0.559397  -0.002870   0.000035
    23  C    0.026818   0.000102  -0.009742  -0.002870   6.606231   0.425769
    24  H    0.000193  -0.000201   0.000693   0.000035   0.425769   0.543905
    25  H    0.000990   0.000456  -0.003315   0.000327   0.394960  -0.032989
    26  H    0.001798  -0.000719   0.001326  -0.000156   0.410690  -0.028563
              25         26
     1  H   -0.000329  -0.000686
     2  C    0.054911  -0.008309
     3  H    0.000823   0.000454
     4  C   -0.058930   0.022571
     5  C   -0.041709  -0.110686
     6  O   -0.000516   0.002620
     7  O    0.004918   0.012228
     8  C    0.002925  -0.026531
     9  H    0.001025   0.007731
    10  H   -0.001093  -0.014097
    11  C   -0.001568   0.017247
    12  H    0.000564   0.004390
    13  H    0.004168  -0.003466
    14  N   -0.002262  -0.005184
    15  C   -0.000598   0.004540
    16  H   -0.000088  -0.001096
    17  H    0.000167   0.000260
    18  H   -0.000034   0.001317
    19  C    0.000990   0.001798
    20  H    0.000456  -0.000719
    21  H   -0.003315   0.001326
    22  H    0.000327  -0.000156
    23  C    0.394960   0.410690
    24  H   -0.032989  -0.028563
    25  H    0.543845  -0.030473
    26  H   -0.030473   0.571278
 Mulliken charges:
               1
     1  H    0.194005
     2  C   -0.499523
     3  H    0.139148
     4  C    0.963390
     5  C   -0.659119
     6  O   -0.169823
     7  O    0.017639
     8  C   -0.479152
     9  H    0.186163
    10  H    0.181042
    11  C   -0.229290
    12  H    0.130021
    13  H    0.159506
    14  N    0.007974
    15  C   -0.395669
    16  H    0.119211
    17  H    0.160527
    18  H    0.160055
    19  C   -0.287417
    20  H    0.119610
    21  H    0.126168
    22  H    0.143219
    23  C   -0.585197
    24  H    0.162173
    25  H    0.163825
    26  H    0.171517
 Sum of Mulliken charges =  -0.00000
 Mulliken charges with hydrogens summed into heavy atoms:
               1
     2  C   -0.166370
     4  C    0.963390
     5  C   -0.659119
     6  O   -0.169823
     7  O    0.017639
     8  C   -0.111947
    11  C    0.060237
    14  N    0.007974
    15  C    0.044124
    19  C    0.101579
    23  C   -0.087683
 DipInt: DoE/N= T F RetVal/Mat= T F Init=T NMatP=  1 IDeriv=0 Min/MaxMlt=  0  4
 Entering OneElI...
 OneElI was handed 25769474560 working-precision words.
 Multipole integrals L=0 to 4 MinM= 0 MaxM= 0.
 Requested accuracy = 0.1000D-12
 ShPair: Thresh= 1.00D-13 NBox=     0 BxSize= 0.00D+00 RnKept= 1.29D+01
         NSMCal=                10011 NSMKep=                9547
 PrmmSu-InSpLW:  IPartL=    0 NPrtUS=    1 NPrtUL=    1 DoSpLW=F IThBeg=    0 IThEnd=    0 NThAct=    1.
 PrsmSu:  NPrtUS=   1 ThrOK=F IAlg=1 NPAlg=1 LenDen=           0 ISkipM=0 DoSpLW=F IThBeg=    0 IThEnd=    0.
 Prism:   IPart=     0 DynPar=F LinDyn=F Incr=          95.
 PRISM was handed 25768897327 working-precision words and  9547 shell-pairs
 IPart=  0 NShTot=        9547 NBatch=          95 AvBLen=       100.5
 PrsmSu-ThDecC:  IPartSL=    0    0 NPrtUSL=    1    1 IThBeg=    0 IThEnd=    0 CPU=   -1 GPU=   -1 NThAct=    1.
 PrSmSu:  NxtVal=             96.
 Electronic moments (au):
        -86.00000000          0.20541398          0.04011165          1.06843172
       -881.18940849       -469.20196588       -360.91281252          2.79729005
         -1.00853248          0.86227765        482.72519295       -154.29372772
        -36.90011205       -133.96077495        839.61233373       -304.34126377
        -34.79347250        144.64888954       -134.09513289        214.96564271
     -18148.43499322      -6513.52253267      -3649.60414437       -770.59420064
       1316.83567618       -308.93466018        349.02090533        317.72711680
          2.78063780      -4544.49016378      -3687.86662110      -1466.91481459
       -336.11504287       -969.13837522        435.39554218
 Electronic spatial extent (au):  <R**2>=           1711.3042
 DipInt: DoE/N= F T RetVal/Mat= T F Init=T NMatP=  1 IDeriv=0 Min/MaxMlt=  0  4
 Nuclear    moments (au):
         86.00000000          0.00000000         -0.00000000          0.00000000
        832.27662552        419.99546828        307.57200222          0.00000000
         -0.00000000          0.00000000       -496.69662606        159.45591389
         38.72648215        139.77554980       -846.66522653        301.26308454
         35.48778249       -142.46706823        133.65536937       -216.19431864
      14842.15655944       4896.04861661       2316.52328890        809.42583858
      -1355.35082668        339.59934434       -309.93091974       -328.77052865
         -6.74186569       3748.56339299       2919.32445962        990.78497949
        344.39201557        967.18392696       -429.32949917
 Total      moments (au):
          0.00000000          0.20541398          0.04011165          1.06843172
        -48.91278297        -49.20649760        -53.34081030          2.79729005
         -1.00853248          0.86227765        -13.97143312          5.16218616
          1.82637010          5.81477485         -7.05289280         -3.07817923
          0.69430999          2.18182130         -0.43976352         -1.22867593
      -3306.27843378      -1617.47391605      -1333.08085547         38.83163795
        -38.51515050         30.66468416         39.08998559        -11.04341186
         -3.96122789       -795.92677079       -768.54216148       -476.12983511
          8.27697270         -1.95444826          6.06604302
 Traceless Quadrup. (au):
          1.57391399          1.28019936         -2.85411334          2.79729005
         -1.00853248          0.86227765
 Charge=              0.0000 electrons
 Dipole moment (field-independent basis, Debye):
    X=              0.5221    Y=              0.1020    Z=              2.7157  Tot=              2.7673
 Quadrupole moment (field-independent basis, Debye-Ang):
   XX=            -65.7894   YY=            -66.1844   ZZ=            -71.7452
   XY=              3.7625   XZ=             -1.3565   YZ=              1.1598
 Traceless Quadrupole moment (field-independent basis, Debye-Ang):
   XX=              2.1170   YY=              1.7219   ZZ=             -3.8389
   XY=              3.7625   XZ=             -1.3565   YZ=              1.1598
 Octapole moment (field-independent basis, Debye-Ang**2):
  XXX=             -9.9443  YYY=              3.6742  ZZZ=              1.2999  XYY=              4.1387
  XXY=             -5.0200  XXZ=             -2.1909  XZZ=              0.4942  YZZ=              1.5529
  YYZ=             -0.3130  XYZ=             -0.8745
 Hexadecapole moment (field-independent basis, Debye-Ang**3):
 XXXX=          -1245.3030 YYYY=           -609.2182 ZZZZ=           -502.1022 XXXY=             14.6259
 XXXZ=            -14.5067 YYYX=             11.5498 YYYZ=             14.7232 ZZZX=             -4.1595
 ZZZY=             -1.4920 XXYY=           -299.7842 XXZZ=           -289.4698 YYZZ=           -179.3333
 XXYZ=              3.1175 YYXZ=             -0.7361 ZZXY=              2.2848
 N-N= 6.927720557627D+02 E-N=-2.596761190424D+03  KE= 5.171309964757D+02
 Entering OneElI...
 OneElI was handed 25769545553 working-precision words.
 Calculate electrostatic properties
    NBasis =   347  MinDer = 0  MaxDer = 0
    NGrid  =    26  NMatD  =   1
 Requested accuracy = 0.1000D-12
 ShPair: Thresh= 1.00D-13 NBox=     0 BxSize= 0.00D+00 RnKept= 1.29D+01
         NSMCal=                10011 NSMKep=                8983
 PrmmSu-InSpLW:  IPartL=    0 NPrtUS=   48 NPrtUL=    1 DoSpLW=F IThBeg=    0 IThEnd=   47 NThAct=   48.
 PrsmSu:  NPrtUS=  48 ThrOK=T IAlg=1 NPAlg=1 LenDen=           0 ISkipM=0 DoSpLW=F IThBeg=    0 IThEnd=   47.
 Prism:   IPart=     0 DynPar=F LinDyn=F Incr=          48.
 PRISM was handed   536687222 working-precision words and  8983 shell-pairs
 PRISM was handed   536687222 working-precision words and  8983 shell-pairs
 PRISM was handed   536687222 working-precision words and  8983 shell-pairs
 PRISM was handed   536687222 working-precision words and  8983 shell-pairs
 PRISM was handed   536687222 working-precision words and  8983 shell-pairs
 PRISM was handed   536687222 working-precision words and  8983 shell-pairs
 PRISM was handed   536687222 working-precision words and  8983 shell-pairs
 PRISM was handed   536687222 working-precision words and  8983 shell-pairs
 PRISM was handed   536687222 working-precision words and  8983 shell-pairs
 PRISM was handed   536687222 working-precision words and  8983 shell-pairs
 PRISM was handed   536687222 working-precision words and  8983 shell-pairs
 PRISM was handed   536687222 working-precision words and  8983 shell-pairs
 PRISM was handed   536687222 working-precision words and  8983 shell-pairs
 PRISM was handed   536687222 working-precision words and  8983 shell-pairs
 PRISM was handed   536687222 working-precision words and  8983 shell-pairs
 PRISM was handed   536687222 working-precision words and  8983 shell-pairs
 PRISM was handed   536687222 working-precision words and  8983 shell-pairs
 PRISM was handed   536687222 working-precision words and  8983 shell-pairs
 PRISM was handed   536687222 working-precision words and  8983 shell-pairs
 PRISM was handed   536687222 working-precision words and  8983 shell-pairs
 PRISM was handed   536687222 working-precision words and  8983 shell-pairs
 PRISM was handed   536687222 working-precision words and  8983 shell-pairs
 PRISM was handed   536687222 working-precision words and  8983 shell-pairs
 PRISM was handed   536687222 working-precision words and  8983 shell-pairs
 PRISM was handed   536687222 working-precision words and  8983 shell-pairs
 PRISM was handed   536687222 working-precision words and  8983 shell-pairs
 PRISM was handed   536687222 working-precision words and  8983 shell-pairs
 PRISM was handed   536687222 working-precision words and  8983 shell-pairs
 PRISM was handed   536687222 working-precision words and  8983 shell-pairs
 PRISM was handed   536687222 working-precision words and  8983 shell-pairs
 PRISM was handed   536687222 working-precision words and  8983 shell-pairs
 PRISM was handed   536687222 working-precision words and  8983 shell-pairs
 PRISM was handed   536687222 working-precision words and  8983 shell-pairs
 PRISM was handed   536687222 working-precision words and  8983 shell-pairs
 PRISM was handed   536687222 working-precision words and  8983 shell-pairs
 PRISM was handed   536687222 working-precision words and  8983 shell-pairs
 PRISM was handed   536687222 working-precision words and  8983 shell-pairs
 PRISM was handed   536687222 working-precision words and  8983 shell-pairs
 PRISM was handed   536687222 working-precision words and  8983 shell-pairs
 PRISM was handed   536687222 working-precision words and  8983 shell-pairs
 PRISM was handed   536687222 working-precision words and  8983 shell-pairs
 PRISM was handed   536687222 working-precision words and  8983 shell-pairs
 PRISM was handed   536687222 working-precision words and  8983 shell-pairs
 PRISM was handed   536687222 working-precision words and  8983 shell-pairs
 PRISM was handed   536687222 working-precision words and  8983 shell-pairs
 PRISM was handed   536687222 working-precision words and  8983 shell-pairs
 PRISM was handed   536687222 working-precision words and  8983 shell-pairs
 PRISM was handed   536687222 working-precision words and  8983 shell-pairs
 IPart= 40 NShTot=        4446 NBatch=         171 AvBLen=        26.0
 PrsmSu-ThDecC:  IPartSL=   40    0 NPrtUSL=   48    1 IThBeg=    0 IThEnd=   47 CPU=   -1 GPU=   -1 NThAct=   48.
 IPart= 36 NShTot=        4524 NBatch=         174 AvBLen=        26.0
 PrsmSu-ThDecC:  IPartSL=   36    0 NPrtUSL=   48    1 IThBeg=    0 IThEnd=   47 CPU=   -1 GPU=   -1 NThAct=   47.
 IPart= 41 NShTot=        4446 NBatch=         171 AvBLen=        26.0
 IPart= 35 NShTot=        4550 NBatch=         175 AvBLen=        26.0
 IPart= 45 NShTot=        4446 NBatch=         171 AvBLen=        26.0
 IPart= 23 NShTot=        4680 NBatch=         180 AvBLen=        26.0
 IPart= 42 NShTot=        4446 NBatch=         171 AvBLen=        26.0
 IPart= 33 NShTot=        4576 NBatch=         176 AvBLen=        26.0
 IPart= 29 NShTot=        4602 NBatch=         177 AvBLen=        26.0
 IPart= 28 NShTot=        4628 NBatch=         178 AvBLen=        26.0
 PrsmSu-ThDecC:  IPartSL=   41    0 NPrtUSL=   48    1 IThBeg=    0 IThEnd=   47 CPU=   -1 GPU=   -1 NThAct=   46.
 PrsmSu-ThDecC:  IPartSL=   29    0 NPrtUSL=   48    1 IThBeg=    0 IThEnd=   47 CPU=   -1 GPU=   -1 NThAct=   45.
 PrsmSu-ThDecC:  IPartSL=   33    0 NPrtUSL=   48    1 IThBeg=    0 IThEnd=   47 CPU=   -1 GPU=   -1 NThAct=   44.
 PrsmSu-ThDecC:  IPartSL=   28    0 NPrtUSL=   48    1 IThBeg=    0 IThEnd=   47 CPU=   -1 GPU=   -1 NThAct=   43.
 PrsmSu-ThDecC:  IPartSL=   42    0 NPrtUSL=   48    1 IThBeg=    0 IThEnd=   47 CPU=   -1 GPU=   -1 NThAct=   42.
 PrsmSu-ThDecC:  IPartSL=   35    0 NPrtUSL=   48    1 IThBeg=    0 IThEnd=   47 CPU=   -1 GPU=   -1 NThAct=   41.
 PrsmSu-ThDecC:  IPartSL=   45    0 NPrtUSL=   48    1 IThBeg=    0 IThEnd=   47 CPU=   -1 GPU=   -1 NThAct=   40.
 PrsmSu-ThDecC:  IPartSL=   23    0 NPrtUSL=   48    1 IThBeg=    0 IThEnd=   47 CPU=   -1 GPU=   -1 NThAct=   39.
 IPart= 19 NShTot=        4784 NBatch=         184 AvBLen=        26.0
 PrsmSu-ThDecC:  IPartSL=   19    0 NPrtUSL=   48    1 IThBeg=    0 IThEnd=   47 CPU=   -1 GPU=   -1 NThAct=   38.
 IPart=  8 NShTot=        5330 NBatch=         205 AvBLen=        26.0
 PrsmSu-ThDecC:  IPartSL=    8    0 NPrtUSL=   48    1 IThBeg=    0 IThEnd=   47 CPU=   -1 GPU=   -1 NThAct=   37.
 IPart=  0 NShTot=        5798 NBatch=         223 AvBLen=        26.0
 PrsmSu-ThDecC:  IPartSL=    0    0 NPrtUSL=   48    1 IThBeg=    0 IThEnd=   47 CPU=   -1 GPU=   -1 NThAct=   36.
 IPart=  7 NShTot=        5382 NBatch=         207 AvBLen=        26.0
 PrsmSu-ThDecC:  IPartSL=    7    0 NPrtUSL=   48    1 IThBeg=    0 IThEnd=   47 CPU=   -1 GPU=   -1 NThAct=   35.
 IPart=  4 NShTot=        5590 NBatch=         215 AvBLen=        26.0
 PrsmSu-ThDecC:  IPartSL=    4    0 NPrtUSL=   48    1 IThBeg=    0 IThEnd=   47 CPU=   -1 GPU=   -1 NThAct=   34.
 IPart=  3 NShTot=        5616 NBatch=         216 AvBLen=        26.0
 PrsmSu-ThDecC:  IPartSL=    3    0 NPrtUSL=   48    1 IThBeg=    0 IThEnd=   47 CPU=   -1 GPU=   -1 NThAct=   33.
 IPart=  1 NShTot=        5720 NBatch=         220 AvBLen=        26.0
 PrsmSu-ThDecC:  IPartSL=    1    0 NPrtUSL=   48    1 IThBeg=    0 IThEnd=   47 CPU=   -1 GPU=   -1 NThAct=   32.
 IPart=  2 NShTot=        5694 NBatch=         219 AvBLen=        26.0
 PrsmSu-ThDecC:  IPartSL=    2    0 NPrtUSL=   48    1 IThBeg=    0 IThEnd=   47 CPU=   -1 GPU=   -1 NThAct=   31.
 IPart= 21 NShTot=        4732 NBatch=         182 AvBLen=        26.0
 PrsmSu-ThDecC:  IPartSL=   21    0 NPrtUSL=   48    1 IThBeg=    0 IThEnd=   47 CPU=   -1 GPU=   -1 NThAct=   30.
 IPart= 27 NShTot=        4654 NBatch=         179 AvBLen=        26.0
 PrsmSu-ThDecC:  IPartSL=   27    0 NPrtUSL=   48    1 IThBeg=    0 IThEnd=   47 CPU=   -1 GPU=   -1 NThAct=   29.
 IPart= 11 NShTot=        5200 NBatch=         200 AvBLen=        26.0
 PrsmSu-ThDecC:  IPartSL=   11    0 NPrtUSL=   48    1 IThBeg=    0 IThEnd=   47 CPU=   -1 GPU=   -1 NThAct=   28.
 IPart= 20 NShTot=        4758 NBatch=         183 AvBLen=        26.0
 PrsmSu-ThDecC:  IPartSL=   20    0 NPrtUSL=   48    1 IThBeg=    0 IThEnd=   47 CPU=   -1 GPU=   -1 NThAct=   27.
 IPart= 26 NShTot=        4654 NBatch=         179 AvBLen=        26.0
 PrsmSu-ThDecC:  IPartSL=   26    0 NPrtUSL=   48    1 IThBeg=    0 IThEnd=   47 CPU=   -1 GPU=   -1 NThAct=   26.
 IPart= 31 NShTot=        4602 NBatch=         177 AvBLen=        26.0
 PrsmSu-ThDecC:  IPartSL=   31    0 NPrtUSL=   48    1 IThBeg=    0 IThEnd=   47 CPU=   -1 GPU=   -1 NThAct=   25.
 IPart= 22 NShTot=        4706 NBatch=         181 AvBLen=        26.0
 PrsmSu-ThDecC:  IPartSL=   22    0 NPrtUSL=   48    1 IThBeg=    0 IThEnd=   47 CPU=   -1 GPU=   -1 NThAct=   24.
 IPart= 37 NShTot=        4524 NBatch=         174 AvBLen=        26.0
 PrsmSu-ThDecC:  IPartSL=   37    0 NPrtUSL=   48    1 IThBeg=    0 IThEnd=   47 CPU=   -1 GPU=   -1 NThAct=   23.
 IPart= 44 NShTot=        4446 NBatch=         171 AvBLen=        26.0
 PrsmSu-ThDecC:  IPartSL=   44    0 NPrtUSL=   48    1 IThBeg=    0 IThEnd=   47 CPU=   -1 GPU=   -1 NThAct=   22.
 IPart=  6 NShTot=        5460 NBatch=         210 AvBLen=        26.0
 PrsmSu-ThDecC:  IPartSL=    6    0 NPrtUSL=   48    1 IThBeg=    0 IThEnd=   47 CPU=   -1 GPU=   -1 NThAct=   21.
 IPart= 46 NShTot=        4420 NBatch=         170 AvBLen=        26.0
 PrsmSu-ThDecC:  IPartSL=   46    0 NPrtUSL=   48    1 IThBeg=    0 IThEnd=   47 CPU=   -1 GPU=   -1 NThAct=   20.
 IPart=  9 NShTot=        5304 NBatch=         204 AvBLen=        26.0
 PrsmSu-ThDecC:  IPartSL=    9    0 NPrtUSL=   48    1 IThBeg=    0 IThEnd=   47 CPU=   -1 GPU=   -1 NThAct=   19.
 IPart= 18 NShTot=        4862 NBatch=         187 AvBLen=        26.0
 PrsmSu-ThDecC:  IPartSL=   18    0 NPrtUSL=   48    1 IThBeg=    0 IThEnd=   47 CPU=   -1 GPU=   -1 NThAct=   18.
 IPart= 34 NShTot=        4550 NBatch=         175 AvBLen=        26.0
 IPart= 16 NShTot=        4914 NBatch=         189 AvBLen=        26.0
 PrsmSu-ThDecC:  IPartSL=   34    0 NPrtUSL=   48    1 IThBeg=    0 IThEnd=   47 CPU=   -1 GPU=   -1 NThAct=   17.
 PrsmSu-ThDecC:  IPartSL=   16    0 NPrtUSL=   48    1 IThBeg=    0 IThEnd=   47 CPU=   -1 GPU=   -1 NThAct=   16.
 IPart=  5 NShTot=        5590 NBatch=         215 AvBLen=        26.0
 PrsmSu-ThDecC:  IPartSL=    5    0 NPrtUSL=   48    1 IThBeg=    0 IThEnd=   47 CPU=   -1 GPU=   -1 NThAct=   15.
 IPart= 32 NShTot=        4602 NBatch=         177 AvBLen=        26.0
 PrsmSu-ThDecC:  IPartSL=   32    0 NPrtUSL=   48    1 IThBeg=    0 IThEnd=   47 CPU=   -1 GPU=   -1 NThAct=   14.
 IPart= 13 NShTot=        5122 NBatch=         197 AvBLen=        26.0
 IPart= 30 NShTot=        4602 NBatch=         177 AvBLen=        26.0
 IPart= 15 NShTot=        5018 NBatch=         193 AvBLen=        26.0
 PrsmSu-ThDecC:  IPartSL=   13    0 NPrtUSL=   48    1 IThBeg=    0 IThEnd=   47 CPU=   -1 GPU=   -1 NThAct=   13.
 PrsmSu-ThDecC:  IPartSL=   15    0 NPrtUSL=   48    1 IThBeg=    0 IThEnd=   47 CPU=   -1 GPU=   -1 NThAct=   12.
 PrsmSu-ThDecC:  IPartSL=   30    0 NPrtUSL=   48    1 IThBeg=    0 IThEnd=   47 CPU=   -1 GPU=   -1 NThAct=   11.
 IPart= 14 NShTot=        5096 NBatch=         196 AvBLen=        26.0
 PrsmSu-ThDecC:  IPartSL=   14    0 NPrtUSL=   48    1 IThBeg=    0 IThEnd=   47 CPU=   -1 GPU=   -1 NThAct=   10.
 IPart= 39 NShTot=        4446 NBatch=         171 AvBLen=        26.0
 PrsmSu-ThDecC:  IPartSL=   39    0 NPrtUSL=   48    1 IThBeg=    0 IThEnd=   47 CPU=   -1 GPU=   -1 NThAct=    9.
 IPart= 38 NShTot=        4472 NBatch=         172 AvBLen=        26.0
 PrsmSu-ThDecC:  IPartSL=   38    0 NPrtUSL=   48    1 IThBeg=    0 IThEnd=   47 CPU=   -1 GPU=   -1 NThAct=    8.
 IPart= 43 NShTot=        4446 NBatch=         171 AvBLen=        26.0
 PrsmSu-ThDecC:  IPartSL=   43    0 NPrtUSL=   48    1 IThBeg=    0 IThEnd=   47 CPU=   -1 GPU=   -1 NThAct=    7.
 IPart= 17 NShTot=        4914 NBatch=         189 AvBLen=        26.0
 PrsmSu-ThDecC:  IPartSL=   17    0 NPrtUSL=   48    1 IThBeg=    0 IThEnd=   47 CPU=   -1 GPU=   -1 NThAct=    6.
 IPart= 47 NShTot=        4420 NBatch=         170 AvBLen=        26.0
 PrsmSu-ThDecC:  IPartSL=   47    0 NPrtUSL=   48    1 IThBeg=    0 IThEnd=   47 CPU=   -1 GPU=   -1 NThAct=    5.
 IPart= 25 NShTot=        4654 NBatch=         179 AvBLen=        26.0
 PrsmSu-ThDecC:  IPartSL=   25    0 NPrtUSL=   48    1 IThBeg=    0 IThEnd=   47 CPU=   -1 GPU=   -1 NThAct=    4.
 IPart= 24 NShTot=        4680 NBatch=         180 AvBLen=        26.0
 PrsmSu-ThDecC:  IPartSL=   24    0 NPrtUSL=   48    1 IThBeg=    0 IThEnd=   47 CPU=   -1 GPU=   -1 NThAct=    3.
 IPart= 10 NShTot=        5304 NBatch=         204 AvBLen=        26.0
 PrsmSu-ThDecC:  IPartSL=   10    0 NPrtUSL=   48    1 IThBeg=    0 IThEnd=   47 CPU=   -1 GPU=   -1 NThAct=    2.
 IPart= 12 NShTot=        5148 NBatch=         198 AvBLen=        26.0
 PrsmSu-ThDecC:  IPartSL=   12    0 NPrtUSL=   48    1 IThBeg=    0 IThEnd=   47 CPU=   -1 GPU=   -1 NThAct=    1.
 PrSmSu:  NxtVal=           2305.
 --------------------------------------------------------
       Center         ----      EFG at Nuclei      ----
                      3XX-RR        3YY-RR        3ZZ-RR
 --------------------------------------------------------
     1   Atom        0.134709      0.070617     -0.205326
     2   Atom       -0.082150      0.022056      0.060094
     3   Atom       -0.080753      0.061296      0.019456
     4   Atom       -0.069747      0.067065      0.002681
     5   Atom        0.051965     -0.071119      0.019153
     6   Atom       -0.113522      0.845339     -0.731817
     7   Atom       -0.567449     -0.696558      1.264007
     8   Atom       -0.344161      0.179853      0.164308
     9   Atom       -0.025314      0.140265     -0.114951
    10   Atom        0.136811     -0.153037      0.016227
    11   Atom        0.124677     -0.127297      0.002620
    12   Atom       -0.197101      0.114690      0.082411
    13   Atom       -0.023951      0.131940     -0.107988
    14   Atom        0.975219     -0.596403     -0.378815
    15   Atom       -0.069494      0.141371     -0.071877
    16   Atom       -0.234364      0.126146      0.108218
    17   Atom        0.150653     -0.203885      0.053232
    18   Atom        0.105157     -0.043495     -0.061662
    19   Atom        0.064154     -0.057038     -0.007116
    20   Atom       -0.222327      0.130814      0.091513
    21   Atom       -0.030172      0.141696     -0.111523
    22   Atom        0.155236     -0.192157      0.036921
    23   Atom        0.030778      0.033397     -0.064175
    24   Atom       -0.269305      0.121756      0.147549
    25   Atom        0.144148     -0.052592     -0.091556
    26   Atom        0.018221     -0.142577      0.124356
 --------------------------------------------------------
                        XY            XZ            YZ
 --------------------------------------------------------
     1   Atom        0.040197      0.095087     -0.174149
     2   Atom        0.216909     -0.128569      0.164396
     3   Atom       -0.155017      0.183266      0.108701
     4   Atom        0.176449     -0.067498      0.158655
     5   Atom        0.124368     -0.350580      0.082401
     6   Atom        1.007766     -0.270850     -0.356781
     7   Atom       -0.618926     -1.132576     -0.748371
     8   Atom       -0.119793     -0.255180     -0.027178
     9   Atom       -0.041335      0.201722      0.047942
    10   Atom        0.017799      0.005902     -0.205341
    11   Atom        0.017216     -0.025558     -0.107532
    12   Atom       -0.088533     -0.154020     -0.043198
    13   Atom       -0.026486      0.210398      0.032695
    14   Atom        0.412625      0.609034      0.112804
    15   Atom       -0.036934      0.195837     -0.032929
    16   Atom       -0.111403     -0.109672     -0.035732
    17   Atom        0.014282      0.018896     -0.178451
    18   Atom        0.096729     -0.081876      0.193755
    19   Atom        0.072280     -0.070837      0.153710
    20   Atom       -0.069177     -0.150870     -0.020056
    21   Atom       -0.020393      0.219817      0.037674
    22   Atom        0.005451     -0.000157     -0.183800
    23   Atom        0.034603      0.018615     -0.027913
    24   Atom        0.114658      0.000617     -0.003782
    25   Atom        0.045922     -0.047959      0.218272
    26   Atom       -0.193635     -0.052698     -0.089959
 --------------------------------------------------------


 ---------------------------------------------------------------------------------
              Nuclear Quadrupole Coupling Constant in Principal Axis System
 ---------------------------------------------------------------------------------

       Atom             a.u.   MegaHertz   Gauss  10(-4) cm-1        Axes

              Baa    -0.7094     3.407     1.216     1.137 -0.3267  0.8977  0.2956
    14 N(14)  Bbb    -0.5948     2.857     1.019     0.953 -0.2451 -0.3825  0.8909
              Bcc     1.3042    -6.264    -2.235    -2.089  0.9128  0.2186  0.3450
 

 ---------------------------------------------------------------------------------

 No NMR shielding tensors so no spin-rotation constants.
 Leave Link  601 at Thu Apr 21 16:33:25 2022, MaxMem= 25769803776 cpu:              10.2 elap:               0.3
 Calling FoFJK, ICntrl=      2127 FMM=F ISym2X=0 I1Cent= 0 IOpClX= 0 NMat=1 NMatS=1 NMatT=0.
 ***** Axes restored to original set *****
 -------------------------------------------------------------------
 Center     Atomic                   Forces (Hartrees/Bohr)
 Number     Number              X              Y              Z
 -------------------------------------------------------------------
      1        1           0.000967433   -0.002245676    0.003110664
      2        6           0.002159807   -0.009273155   -0.000815260
      3        1           0.000227283   -0.001453748    0.000944498
      4        6           0.000982563    0.007185258   -0.000389785
      5        6          -0.004665742    0.009067119   -0.047096274
      6        8           0.047253960    0.027235159    0.011051837
      7        8          -0.002696117   -0.004483073    0.005333371
      8        6          -0.009804598   -0.010425770   -0.009931048
      9        1           0.002295746    0.000405943    0.003997634
     10        1           0.000811002    0.002597435   -0.004373638
     11        6          -0.002590837    0.001618297    0.001468984
     12        1           0.001077143   -0.006591571    0.002128464
     13        1          -0.002538892   -0.001521466   -0.004630515
     14        7          -0.024764982   -0.013971061    0.019801173
     15        6           0.001367556   -0.006750243   -0.002917266
     16        1          -0.004696063   -0.003689314    0.002620885
     17        1          -0.000835652    0.002280460    0.004538495
     18        1          -0.008667327   -0.001662744    0.003021412
     19        6           0.003800480    0.006559630   -0.000445312
     20        1          -0.003953390   -0.003275911    0.002206933
     21        1           0.002427589   -0.001496632    0.001276550
     22        1           0.003694402   -0.001943438    0.001310831
     23        6          -0.001542387    0.005556056    0.011366715
     24        1          -0.002347506   -0.000163717    0.001336210
     25        1           0.001572282    0.002201402   -0.000273300
     26        1           0.000466246    0.004240759   -0.004642256
 -------------------------------------------------------------------
 Cartesian Forces:  Max     0.047253960 RMS     0.010017292

 GradGradGradGradGradGradGradGradGradGradGradGradGradGradGradGradGradGrad
 Berny optimization.
 FormGI is forming the generalized inverse of G from B-inverse, IUseBI=4.
 Internal  Forces:  Max     0.207808678 RMS     0.030053942
 Search for a local minimum.
 Step number   1 out of a maximum of  124
 All quantities printed in internal units (Hartrees-Bohrs-Radians)
 Mixed Optimization -- RFO/linear search
 Second derivative matrix not updated -- first step.
 ITU=  0
     Eigenvalues ---    0.00272   0.00670   0.00740   0.00825   0.00835
     Eigenvalues ---    0.00869   0.01198   0.01326   0.01422   0.02197
     Eigenvalues ---    0.02841   0.02843   0.02843   0.03876   0.05080
     Eigenvalues ---    0.05415   0.05735   0.07036   0.07042   0.07097
     Eigenvalues ---    0.07293   0.07361   0.07378   0.09549   0.11352
     Eigenvalues ---    0.13009   0.13740   0.16000   0.16000   0.16000
     Eigenvalues ---    0.16000   0.16000   0.16000   0.16000   0.16000
     Eigenvalues ---    0.16000   0.16000   0.16000   0.16633   0.17169
     Eigenvalues ---    0.21937   0.22083   0.24999   0.25000   0.25000
     Eigenvalues ---    0.25000   0.25000   0.28754   0.32172   0.33207
     Eigenvalues ---    0.33812   0.33882   0.34072   0.34092   0.34113
     Eigenvalues ---    0.34155   0.34167   0.34179   0.34190   0.34220
     Eigenvalues ---    0.34252   0.34326   0.34380   0.34884   0.35222
     Eigenvalues ---    0.35228   0.36278   0.36377   0.39954   0.52584
     Eigenvalues ---    0.56545   0.95213
 RFO step:  Lambda=-2.40098001D-01 EMin= 2.71715845D-03
 Linear search not attempted -- first point.
 Maximum step size (   0.300) exceeded in Quadratic search.
    -- Step size scaled by   0.483
 Iteration  1 RMS(Cart)=  0.27316898 RMS(Int)=  0.01710485
 Iteration  2 RMS(Cart)=  0.15673180 RMS(Int)=  0.00358228
 Iteration  3 RMS(Cart)=  0.00670011 RMS(Int)=  0.00084398
 Iteration  4 RMS(Cart)=  0.00001723 RMS(Int)=  0.00084394
 Iteration  5 RMS(Cart)=  0.00000001 RMS(Int)=  0.00084394
 Variable       Old X    -DE/DX   Delta X   Delta X   Delta X     New X
                                 (Linear)    (Quad)   (Total)
    R1        2.05307  -0.00230   0.00000  -0.00188  -0.00188   2.05119
    R2        2.05315  -0.00127   0.00000  -0.00103  -0.00103   2.05212
    R3        2.53784  -0.01123   0.00000  -0.00673  -0.00673   2.53111
    R4        2.81989   0.00663   0.00000   0.00559   0.00559   2.82548
    R5        2.83830   0.01112   0.00000   0.00956   0.00956   2.84786
    R6        2.30619  -0.03073   0.00000  -0.01244  -0.01244   2.29375
    R7        2.57345   0.01595   0.00000   0.01005   0.01005   2.58350
    R8        2.71616   0.05770   0.00000   0.04354   0.04354   2.75970
    R9        2.07140  -0.00199   0.00000  -0.00165  -0.00165   2.06974
   R10        2.06906  -0.00421   0.00000  -0.00349  -0.00349   2.06557
   R11        2.90519   0.03035   0.00000   0.02776   0.02776   2.93296
   R12        2.07530   0.00554   0.00000   0.00462   0.00462   2.07992
   R13        2.07648  -0.00338   0.00000  -0.00282  -0.00282   2.07366
   R14        2.79163  -0.02081   0.00000  -0.01706  -0.01706   2.77458
   R15        2.76796   0.00088   0.00000   0.00071   0.00071   2.76867
   R16        2.76949  -0.00568   0.00000  -0.00455  -0.00455   2.76494
   R17        2.07048   0.00586   0.00000   0.00486   0.00486   2.07535
   R18        2.07069  -0.00335   0.00000  -0.00278  -0.00278   2.06791
   R19        2.06783  -0.00876   0.00000  -0.00725  -0.00725   2.06059
   R20        2.07176   0.00537   0.00000   0.00446   0.00446   2.07622
   R21        2.06961  -0.00094   0.00000  -0.00078  -0.00078   2.06883
   R22        2.07209  -0.00293   0.00000  -0.00244  -0.00244   2.06966
   R23        2.07028  -0.00136   0.00000  -0.00113  -0.00113   2.06915
   R24        2.07011  -0.00083   0.00000  -0.00069  -0.00069   2.06942
   R25        2.06694  -0.00603   0.00000  -0.00498  -0.00498   2.06195
    A1        2.03483   0.00301   0.00000   0.00363   0.00363   2.03846
    A2        2.13964  -0.00358   0.00000  -0.00432  -0.00432   2.13532
    A3        2.10872   0.00057   0.00000   0.00069   0.00069   2.10940
    A4        2.13907  -0.02391   0.00000  -0.02355  -0.02355   2.11552
    A5        2.10829   0.00050   0.00000   0.00050   0.00050   2.10879
    A6        2.03581   0.02341   0.00000   0.02306   0.02306   2.05887
    A7        2.14503  -0.00285   0.00000  -0.00289  -0.00355   2.14148
    A8        1.95681   0.01183   0.00000   0.01157   0.01091   1.96772
    A9        2.18131  -0.00925   0.00000  -0.00920  -0.00985   2.17146
   A10        1.96939   0.20781   0.00000   0.20467   0.20467   2.17406
   A11        1.90715  -0.02821   0.00000  -0.01547  -0.02069   1.88645
   A12        1.88411  -0.05788   0.00000  -0.07134  -0.06827   1.81584
   A13        1.92074   0.13149   0.00000   0.14016   0.13903   2.05977
   A14        1.91471   0.01032   0.00000   0.00211   0.00117   1.91588
   A15        1.91420  -0.00032   0.00000   0.01354   0.01017   1.92437
   A16        1.92264  -0.05598   0.00000  -0.06984  -0.06712   1.85552
   A17        1.90911  -0.02195   0.00000  -0.02200  -0.02149   1.88762
   A18        1.87221  -0.02942   0.00000  -0.02993  -0.03045   1.84176
   A19        1.98927   0.08809   0.00000   0.09389   0.09411   2.08339
   A20        1.84411   0.01216   0.00000   0.00786   0.00704   1.85115
   A21        1.93859  -0.03908   0.00000  -0.04459  -0.04446   1.89413
   A22        1.90371  -0.01487   0.00000  -0.01085  -0.01101   1.89270
   A23        1.96013   0.00022   0.00000  -0.00085  -0.00087   1.95925
   A24        1.92639  -0.00067   0.00000  -0.00195  -0.00197   1.92442
   A25        1.90994  -0.00503   0.00000  -0.00708  -0.00709   1.90285
   A26        1.95635  -0.00293   0.00000  -0.00380  -0.00381   1.95254
   A27        1.93035  -0.00537   0.00000  -0.00659  -0.00659   1.92376
   A28        1.94379   0.00395   0.00000   0.00514   0.00514   1.94894
   A29        1.89202   0.00187   0.00000   0.00156   0.00153   1.89355
   A30        1.89668   0.00011   0.00000   0.00033   0.00034   1.89701
   A31        1.84023   0.00274   0.00000   0.00384   0.00385   1.84408
   A32        1.95674   0.00338   0.00000   0.00409   0.00409   1.96083
   A33        1.93494  -0.00324   0.00000  -0.00394  -0.00395   1.93100
   A34        1.92803  -0.00415   0.00000  -0.00499  -0.00499   1.92304
   A35        1.89409  -0.00018   0.00000  -0.00025  -0.00025   1.89384
   A36        1.88754   0.00067   0.00000   0.00087   0.00087   1.88841
   A37        1.85914   0.00367   0.00000   0.00442   0.00441   1.86355
   A38        1.92737   0.00240   0.00000   0.00273   0.00273   1.93010
   A39        1.92539   0.00073   0.00000   0.00092   0.00092   1.92631
   A40        1.97351  -0.00142   0.00000  -0.00159  -0.00159   1.97193
   A41        1.89469  -0.00260   0.00000  -0.00340  -0.00340   1.89129
   A42        1.87062  -0.00077   0.00000  -0.00098  -0.00098   1.86965
   A43        1.86936   0.00150   0.00000   0.00211   0.00211   1.87148
    D1       -0.00312  -0.00007   0.00000  -0.00016  -0.00016  -0.00328
    D2       -3.13840  -0.00038   0.00000  -0.00066  -0.00066  -3.13906
    D3        3.13624  -0.00002   0.00000  -0.00007  -0.00007   3.13617
    D4        0.00097  -0.00033   0.00000  -0.00058  -0.00057   0.00040
    D5       -0.34913   0.01781   0.00000   0.03397   0.03401  -0.31512
    D6        2.78405  -0.01621   0.00000  -0.03083  -0.03086   2.75319
    D7        2.78639   0.01804   0.00000   0.03439   0.03443   2.82081
    D8       -0.36361  -0.01598   0.00000  -0.03041  -0.03045  -0.39406
    D9       -1.05699   0.00048   0.00000   0.00083   0.00083  -1.05616
   D10        1.03749  -0.00075   0.00000  -0.00106  -0.00106   1.03643
   D11        3.13034   0.00073   0.00000   0.00122   0.00123   3.13156
   D12        2.09056   0.00035   0.00000   0.00051   0.00051   2.09107
   D13       -2.09815  -0.00088   0.00000  -0.00138  -0.00138  -2.09953
   D14       -0.00530   0.00060   0.00000   0.00090   0.00090  -0.00440
   D15        2.10301  -0.01766   0.00000  -0.03142  -0.03153   2.07147
   D16       -1.04720  -0.05248   0.00000  -0.09778  -0.09767  -1.14487
   D17        1.39627  -0.00247   0.00000  -0.02181  -0.02234   1.37392
   D18       -2.80547  -0.03977   0.00000  -0.06958  -0.06792  -2.87339
   D19       -0.70658  -0.06592   0.00000  -0.11573  -0.11686  -0.82344
   D20       -3.05424   0.03756   0.00000   0.06562   0.06740  -2.98684
   D21       -1.06205   0.02543   0.00000   0.04815   0.05021  -1.01183
   D22        1.04721   0.04126   0.00000   0.07234   0.07403   1.12124
   D23        1.13036  -0.00979   0.00000  -0.01164  -0.01280   1.11756
   D24        3.12255  -0.02192   0.00000  -0.02911  -0.02999   3.09257
   D25       -1.05138  -0.00609   0.00000  -0.00492  -0.00616  -1.05754
   D26       -0.97879   0.01320   0.00000   0.02145   0.02064  -0.95815
   D27        1.01340   0.00106   0.00000   0.00398   0.00345   1.01685
   D28        3.12266   0.01690   0.00000   0.02818   0.02728  -3.13325
   D29        1.04723   0.01320   0.00000   0.02351   0.02300   1.07023
   D30       -3.09953   0.00640   0.00000   0.01240   0.01188  -3.08765
   D31       -1.11873   0.00619   0.00000   0.01652   0.01700  -1.10174
[...]
 **** Fit       0.002095
 **** Fit       0.002758
 **** Fit       0.003093
 **** Fit       0.003062
 **** Fit       0.002810
 **** Fit       0.002516
 **** Fit       0.002287
 **** Fit       0.002145
 **** Fit       0.002073
 **** Fit       0.000327
 **** Fit       0.000175
 **** Fit       0.000177
 **** Fit       0.000408
 **** Fit       0.000877
 **** Fit       0.001483
 **** Fit       0.002022
 **** Fit       0.002315
 **** Fit       0.002323
 **** Fit       0.002151
 **** Fit       0.001935
 **** Fit       0.001763
 **** Fit       0.001660
 **** Fit       0.000206
 **** Fit       0.000046
 **** Fit       0.000002
 **** Fit       0.000131
 **** Fit       0.000440
 **** Fit       0.000858
 **** Fit       0.001248
 **** Fit       0.001486
 **** Fit       0.001538
 **** Fit       0.001460
 **** Fit       0.001341
 **** Fit       0.001244
 **** Fit       0.001190
 **** Fit      -0.000066
 **** Fit      -0.000141
 **** Fit      -0.000097
 **** Fit       0.000075
 **** Fit       0.000329
 **** Fit       0.000584
 **** Fit       0.000762
 **** Fit       0.000837
 **** Fit       0.000831
 **** Fit       0.000793
 **** Fit       0.000762
 **** Fit      -0.000267
 **** Fit      -0.000280
 **** Fit      -0.000207
 **** Fit      -0.000072
 **** Fit       0.000079
 **** Fit       0.000203
 **** Fit       0.000277
 **** Fit       0.000310
 **** Fit       0.000323
 **** Fit       0.000337
 **** Fit      -0.000435
 **** Fit      -0.000424
 **** Fit      -0.000367
 **** Fit      -0.000287
 **** Fit      -0.000208
 **** Fit      -0.000146
 **** Fit      -0.000100
 **** Fit      -0.000590
 **** Fit      -0.000556
 **** Fit      -0.000511
 **** Fit       0.003136
 **** Fit       0.003244
 **** Fit       0.003356
 **** Fit       0.003468
 **** Fit       0.003577
 **** Fit       0.003680
 **** Fit       0.003775
 **** Fit       0.002928
 **** Fit       0.003044
 **** Fit       0.003173
 **** Fit       0.003316
 **** Fit       0.003467
 **** Fit       0.003607
 **** Fit       0.003723
 **** Fit       0.003813
 **** Fit       0.003886
 **** Fit       0.003956
 **** Fit       0.002803
 **** Fit       0.002926
 **** Fit       0.003076
 **** Fit       0.003266
 **** Fit       0.003495
 **** Fit       0.003730
 **** Fit       0.003923
 **** Fit       0.004039
 **** Fit       0.004084
 **** Fit       0.004094
 **** Fit       0.004105
 **** Fit       0.004137
 **** Fit       0.002777
 **** Fit       0.002925
 **** Fit       0.003137
 **** Fit       0.003445
 **** Fit       0.003835
 **** Fit       0.004231
 **** Fit       0.004515
 **** Fit       0.004614
 **** Fit       0.004556
 **** Fit       0.004432
 **** Fit       0.004330
 **** Fit       0.004288
 **** Fit       0.004306
 **** Fit       0.002614
 **** Fit       0.002731
 **** Fit       0.002910
 **** Fit       0.003213
 **** Fit       0.003695
 **** Fit       0.004336
 **** Fit       0.004984
 **** Fit       0.005405
 **** Fit       0.005461
 **** Fit       0.005224
 **** Fit       0.004889
 **** Fit       0.004615
 **** Fit       0.004464
 **** Fit       0.004427
 **** Fit       0.004530
 **** Fit       0.004589
 **** Fit       0.002544
 **** Fit       0.002654
 **** Fit       0.002857
 **** Fit       0.003253
 **** Fit       0.003930
 **** Fit       0.004866
 **** Fit       0.005819
 **** Fit       0.006404
 **** Fit       0.006400
 **** Fit       0.005940
 **** Fit       0.005354
 **** Fit       0.004888
 **** Fit       0.004622
 **** Fit       0.004528
 **** Fit       0.004543
 **** Fit       0.004603
 **** Fit       0.004659
 **** Fit       0.004680
 **** Fit       0.002449
 **** Fit       0.002536
 **** Fit       0.002738
 **** Fit       0.003182
 **** Fit       0.003991
 **** Fit       0.005147
 **** Fit       0.006339
 **** Fit       0.007060
 **** Fit       0.007015
 **** Fit       0.006394
 **** Fit       0.005630
 **** Fit       0.005034
 **** Fit       0.004694
 **** Fit       0.004566
 **** Fit       0.004568
 **** Fit       0.004623
 **** Fit       0.004675
 **** Fit       0.004688
 **** Fit       0.004649
 **** Fit       0.002333
 **** Fit       0.002381
 **** Fit       0.002541
 **** Fit       0.002952
 **** Fit       0.003749
 **** Fit       0.004919
 **** Fit       0.006148
 **** Fit       0.006909
 **** Fit       0.006892
 **** Fit       0.006288
 **** Fit       0.005536
 **** Fit       0.004952
 **** Fit       0.004622
 **** Fit       0.004502
 **** Fit       0.004509
 **** Fit       0.004564
 **** Fit       0.004612
 **** Fit       0.004618
 **** Fit       0.004571
 **** Fit       0.002206
 **** Fit       0.002204
 **** Fit       0.002290
 **** Fit       0.002590
 **** Fit       0.003225
 **** Fit       0.004189
 **** Fit       0.005227
 **** Fit       0.005915
 **** Fit       0.005993
 **** Fit       0.005591
 **** Fit       0.005051
 **** Fit       0.004627
 **** Fit       0.004397
 **** Fit       0.004328
 **** Fit       0.004354
 **** Fit       0.004412
 **** Fit       0.004455
 **** Fit       0.004457
 **** Fit       0.004408
 **** Fit       0.002078
 **** Fit       0.002029
 **** Fit       0.002032
 **** Fit       0.002187
 **** Fit       0.002587
 **** Fit       0.003237
 **** Fit       0.003973
 **** Fit       0.004520
 **** Fit       0.004700
 **** Fit       0.004571
 **** Fit       0.004333
 **** Fit       0.004145
 **** Fit       0.004062
 **** Fit       0.004066
 **** Fit       0.004117
 **** Fit       0.004175
 **** Fit       0.004212
 **** Fit       0.004210
 **** Fit       0.001869
 **** Fit       0.001804
 **** Fit       0.001830
 **** Fit       0.002014
 **** Fit       0.002372
 **** Fit       0.002822
 **** Fit       0.003220
 **** Fit       0.003463
 **** Fit       0.003561
 **** Fit       0.003595
 **** Fit       0.003633
 **** Fit       0.003694
 **** Fit       0.003766
 **** Fit       0.003833
 **** Fit       0.003882
 **** Fit       0.003905
 **** Fit       0.001728
 **** Fit       0.001620
 **** Fit       0.001555
 **** Fit       0.001584
 **** Fit       0.001730
 **** Fit       0.001970
 **** Fit       0.002245
 **** Fit       0.002509
 **** Fit       0.002752
 **** Fit       0.002979
 **** Fit       0.003189
 **** Fit       0.003358
 **** Fit       0.003473
 **** Fit       0.003535
 **** Fit       0.003560
 **** Fit       0.003560
 **** Fit       0.001467
 **** Fit       0.001351
 **** Fit       0.001284
 **** Fit       0.001298
 **** Fit       0.001400
 **** Fit       0.001586
 **** Fit       0.001847
 **** Fit       0.002168
 **** Fit       0.002517
 **** Fit       0.002838
 **** Fit       0.003072
 **** Fit       0.003200
 **** Fit       0.003238
 **** Fit       0.003227
 **** Fit       0.003196
 **** Fit       0.001186
 **** Fit       0.001067
 **** Fit       0.001003
 **** Fit       0.001020
 **** Fit       0.001145
 **** Fit       0.001391
 **** Fit       0.001747
 **** Fit       0.002159
 **** Fit       0.002539
 **** Fit       0.002802
 **** Fit       0.002921
 **** Fit       0.002928
 **** Fit       0.002879
 **** Fit       0.002818
 **** Fit       0.002765
 **** Fit       0.000750
 **** Fit       0.000829
 **** Fit       0.001049
 **** Fit       0.001402
 **** Fit       0.001827
 **** Fit       0.002219
 **** Fit       0.002483
 **** Fit       0.002588
 **** Fit       0.002572
 **** Fit       0.002500
 **** Fit       0.002423
 **** Fit       0.002363
 **** Fit       0.000542
 **** Fit       0.000583
 **** Fit       0.000763
 **** Fit       0.001077
 **** Fit       0.001467
 **** Fit       0.001830
 **** Fit       0.002075
 **** Fit       0.002171
 **** Fit       0.002153
 **** Fit       0.002082
 **** Fit       0.002009
 **** Fit       0.001955
 **** Fit       0.000371
 **** Fit       0.000378
 **** Fit       0.000506
 **** Fit       0.000755
 **** Fit       0.001074
 **** Fit       0.001378
 **** Fit       0.001591
 **** Fit       0.001685
 **** Fit       0.001683
 **** Fit       0.001636
 **** Fit       0.001584
 **** Fit       0.000222
 **** Fit       0.000201
 **** Fit       0.000276
 **** Fit       0.000449
 **** Fit       0.000682
 **** Fit       0.000915
 **** Fit       0.001089
 **** Fit       0.001180
 **** Fit       0.001202
 **** Fit       0.001187
 **** Fit       0.001165
 **** Fit       0.000044
 **** Fit       0.000074
 **** Fit       0.000177
 **** Fit       0.000330
 **** Fit       0.000493
 **** Fit       0.000627
 **** Fit       0.000711
 **** Fit       0.000751
 **** Fit       0.000764
 **** Fit      -0.000104
 **** Fit      -0.000055
 **** Fit       0.000034
 **** Fit       0.000139
 **** Fit       0.000235
 **** Fit       0.000307
 **** Fit       0.000354
 **** Fit      -0.000209
 **** Fit      -0.000148
 **** Fit      -0.000084
 **** Fit       0.003151
 **** Fit       0.003256
 **** Fit       0.003355
 **** Fit       0.002963
 **** Fit       0.003093
 **** Fit       0.003224
 **** Fit       0.003347
 **** Fit       0.003453
 **** Fit       0.003540
 **** Fit       0.003611
 **** Fit       0.002720
 **** Fit       0.002853
 **** Fit       0.003009
 **** Fit       0.003185
 **** Fit       0.003363
 **** Fit       0.003516
 **** Fit       0.003628
 **** Fit       0.003698
 **** Fit       0.003740
 **** Fit       0.003776
 **** Fit       0.002703
 **** Fit       0.002869
 **** Fit       0.003083
 **** Fit       0.003335
 **** Fit       0.003587
 **** Fit       0.003787
 **** Fit       0.003900
 **** Fit       0.003933
 **** Fit       0.003922
 **** Fit       0.003905
 **** Fit       0.003907
 **** Fit       0.002527
 **** Fit       0.002670
 **** Fit       0.002878
 **** Fit       0.003169
 **** Fit       0.003524
 **** Fit       0.003877
 **** Fit       0.004138
 **** Fit       0.004248
 **** Fit       0.004225
 **** Fit       0.004135
 **** Fit       0.004047
 **** Fit       0.003999
 **** Fit       0.003997
 **** Fit       0.002453
 **** Fit       0.002606
 **** Fit       0.002853
 **** Fit       0.003221
 **** Fit       0.003684
 **** Fit       0.004146
 **** Fit       0.004472
 **** Fit       0.004578
 **** Fit       0.004493
 **** Fit       0.004321
 **** Fit       0.004160
 **** Fit       0.004063
 **** Fit       0.004034
 **** Fit       0.002351
 **** Fit       0.002498
 **** Fit       0.002761
 **** Fit       0.003174
 **** Fit       0.003710
 **** Fit       0.004251
 **** Fit       0.004626
 **** Fit       0.004735
 **** Fit       0.004613
 **** Fit       0.004390
 **** Fit       0.004187
 **** Fit       0.004061
 **** Fit       0.004018
 **** Fit       0.002220
 **** Fit       0.002342
 **** Fit       0.002583
 **** Fit       0.002984
 **** Fit       0.003520
 **** Fit       0.004070
 **** Fit       0.004462
 **** Fit       0.004587
 **** Fit       0.004480
 **** Fit       0.004271
 **** Fit       0.004080
 **** Fit       0.003965
 **** Fit       0.003929
 **** Fit       0.002071
 **** Fit       0.002150
 **** Fit       0.002335
 **** Fit       0.002664
 **** Fit       0.003122
 **** Fit       0.003607
 **** Fit       0.003973
 **** Fit       0.004126
 **** Fit       0.004086
 **** Fit       0.003956
 **** Fit       0.003835
 **** Fit       0.003770
 **** Fit       0.003764
 **** Fit       0.001916
 **** Fit       0.001946
 **** Fit       0.002055
 **** Fit       0.002280
 **** Fit       0.002614
 **** Fit       0.002987
 **** Fit       0.003299
 **** Fit       0.003477
 **** Fit       0.003526
 **** Fit       0.003510
 **** Fit       0.003489
 **** Fit       0.003497
 **** Fit       0.003534
 **** Fit       0.001765
 **** Fit       0.001750
 **** Fit       0.001787
 **** Fit       0.001907
 **** Fit       0.002113
 **** Fit       0.002368
 **** Fit       0.002614
 **** Fit       0.002804
 **** Fit       0.002933
 **** Fit       0.003025
 **** Fit       0.003106
 **** Fit       0.003187
 **** Fit       0.003265
 **** Fit       0.001573
 **** Fit       0.001554
 **** Fit       0.001589
 **** Fit       0.001690
 **** Fit       0.001846
 **** Fit       0.002030
 **** Fit       0.002219
 **** Fit       0.002401
 **** Fit       0.002574
 **** Fit       0.002735
 **** Fit       0.002874
 **** Fit       0.002982
 **** Fit       0.003058
 **** Fit       0.001357
 **** Fit       0.001334
 **** Fit       0.001360
 **** Fit       0.001441
 **** Fit       0.001574
 **** Fit       0.001752
 **** Fit       0.001962
 **** Fit       0.002186
 **** Fit       0.002399
 **** Fit       0.002574
 **** Fit       0.002697
 **** Fit       0.002770
 **** Fit       0.002805
 **** Fit       0.001103
 **** Fit       0.001132
 **** Fit       0.001226
 **** Fit       0.001387
 **** Fit       0.001604
 **** Fit       0.001852
 **** Fit       0.002089
 **** Fit       0.002279
 **** Fit       0.002404
 **** Fit       0.002468
 **** Fit       0.002491
 **** Fit       0.000952
 **** Fit       0.001091
 **** Fit       0.001298
 **** Fit       0.001544
 **** Fit       0.001783
 **** Fit       0.001971
 **** Fit       0.002090
 **** Fit       0.002145
 **** Fit       0.002158
 **** Fit       0.000724
 **** Fit       0.000836
 **** Fit       0.001018
 **** Fit       0.001242
 **** Fit       0.001462
 **** Fit       0.001637
 **** Fit       0.001747
 **** Fit       0.001797
 **** Fit       0.001808
 **** Fit       0.000527
 **** Fit       0.000608
 **** Fit       0.000754
 **** Fit       0.000940
 **** Fit       0.001128
 **** Fit       0.001281
 **** Fit       0.001381
 **** Fit       0.001431
 **** Fit       0.001447
 **** Fit       0.000400
 **** Fit       0.000505
 **** Fit       0.000647
 **** Fit       0.000796
 **** Fit       0.000923
 **** Fit       0.001012
 **** Fit       0.001063
 **** Fit       0.000277
 **** Fit       0.000376
 **** Fit       0.000486
 **** Fit       0.000586
 **** Fit       0.000662
 **** Fit       0.003103
 **** Fit       0.002785
 **** Fit       0.002925
 **** Fit       0.003064
 **** Fit       0.003189
 **** Fit       0.003291
 **** Fit       0.003367
 **** Fit       0.003423
 **** Fit       0.002648
 **** Fit       0.002806
 **** Fit       0.002983
 **** Fit       0.003158
 **** Fit       0.003307
 **** Fit       0.003414
 **** Fit       0.003479
 **** Fit       0.003514
 **** Fit       0.003538
 **** Fit       0.002472
 **** Fit       0.002626
 **** Fit       0.002819
 **** Fit       0.003040
 **** Fit       0.003259
 **** Fit       0.003437
 **** Fit       0.003549
 **** Fit       0.003597
 **** Fit       0.003604
 **** Fit       0.003600
 **** Fit       0.002406
 **** Fit       0.002575
 **** Fit       0.002799
 **** Fit       0.003063
 **** Fit       0.003324
 **** Fit       0.003531
 **** Fit       0.003648
 **** Fit       0.003680
 **** Fit       0.003661
 **** Fit       0.003630
 **** Fit       0.003613
 **** Fit       0.002309
 **** Fit       0.002482
 **** Fit       0.002721
 **** Fit       0.003010
 **** Fit       0.003299
 **** Fit       0.003527
 **** Fit       0.003651
 **** Fit       0.003676
 **** Fit       0.003643
 **** Fit       0.003599
 **** Fit       0.003574
 **** Fit       0.002180
 **** Fit       0.002338
 **** Fit       0.002567
 **** Fit       0.002852
 **** Fit       0.003143
 **** Fit       0.003376
 **** Fit       0.003509
 **** Fit       0.003544
 **** Fit       0.003521
 **** Fit       0.003487
 **** Fit       0.003470
 **** Fit       0.002025
 **** Fit       0.002152
 **** Fit       0.002345
 **** Fit       0.002594
 **** Fit       0.002858
 **** Fit       0.003080
 **** Fit       0.003222
 **** Fit       0.003282
 **** Fit       0.003293
 **** Fit       0.003290
 **** Fit       0.003299
 **** Fit       0.001857
 **** Fit       0.001942
 **** Fit       0.002084
 **** Fit       0.002277
 **** Fit       0.002493
 **** Fit       0.002690
 **** Fit       0.002837
 **** Fit       0.002929
 **** Fit       0.002985
 **** Fit       0.003028
 **** Fit       0.003073
 **** Fit       0.001730
 **** Fit       0.001817
 **** Fit       0.001949
 **** Fit       0.002110
 **** Fit       0.002275
 **** Fit       0.002421
 **** Fit       0.002542
 **** Fit       0.002642
 **** Fit       0.002731
 **** Fit       0.001570
 **** Fit       0.001646
 **** Fit       0.001757
 **** Fit       0.001888
 **** Fit       0.002027
 **** Fit       0.002167
 **** Fit       0.002301
 **** Fit       0.001452
 **** Fit       0.001553
 **** Fit       0.001681
 **** Fit       0.002133
 **** Fit       0.001691
 **** Fit       0.001851
 **** Fit       0.001989
 **** Fit       0.002095
 **** Fit       0.001261
 **** Fit       0.001418
 **** Fit       0.001575
 **** Fit       0.001711
 **** Fit       0.001814
 **** Fit       0.001156
 **** Fit       0.001300
 **** Fit       0.001426
 **** Fit       0.001522
 **** Fit       0.001027
 **** Fit       0.001138
 **** Fit       0.002844
 **** Fit       0.002962
 **** Fit       0.003057
 **** Fit       0.002561
 **** Fit       0.002714
 **** Fit       0.002865
 **** Fit       0.002997
 **** Fit       0.003097
 **** Fit       0.003165
 **** Fit       0.002515
 **** Fit       0.002685
 **** Fit       0.002854
 **** Fit       0.002999
 **** Fit       0.003105
 **** Fit       0.003169
 **** Fit       0.003204
 **** Fit       0.002274
 **** Fit       0.002430
 **** Fit       0.002609
 **** Fit       0.002788
 **** Fit       0.002943
 **** Fit       0.003053
 **** Fit       0.003118
 **** Fit       0.003151
 **** Fit       0.002153
 **** Fit       0.002301
 **** Fit       0.002475
 **** Fit       0.002654
 **** Fit       0.002810
 **** Fit       0.002925
 **** Fit       0.002996
 **** Fit       0.003035
 **** Fit       0.002132
 **** Fit       0.002288
 **** Fit       0.002452
 **** Fit       0.002602
 **** Fit       0.002719
 **** Fit       0.002801
 **** Fit       0.002855
 **** Fit       0.001936
 **** Fit       0.002064
 **** Fit       0.002204
 **** Fit       0.002341
 **** Fit       0.002458
 **** Fit       0.002551
 **** Fit       0.002625
 **** Fit       0.001826
 **** Fit       0.001938
 **** Fit       0.002057
 **** Fit       0.002170
 **** Fit       0.002273
 -----------------------------------------------------------------
 Leave Link  602 at Thu Apr 21 16:48:46 2022, MaxMem=   104857600 cpu:               2.3 elap:               2.3
 (Enter /opt/ohpc/pub/libs/gaussian/g16-A.03/haswell/g16/l9999.exe)

 Test job not archived.
 1\1\GINC-CASCADEB036\SP\RB3LYP\6-311++G(d,p)\C8H15N1O2\MNG228\21-Apr-2
 022\0\\#P B3LYP/6-311++G(d,p) Geom=Allcheck SCF=Tight EmpiricalDispers
 ion=GD3BJ Pop=CHELPG SP IOp(6/33=2)\\DMAEMA geo opt\\0,1\H,0,0.3632254
 831,0.3285130341,-2.0990021617\C,0,0.0849719733,0.8706483713,-1.204031
 875\H,0,0.0045116496,1.9499229201,-1.2619004362\C,0,-0.1532650568,0.21
 9632067,-0.0631969268\C,0,-0.0228940908,-1.2716828032,-0.0838259967\O,
 0,0.2354646548,-1.9359256206,-1.0610364306\O,0,-0.2101982347,-1.789877
 1554,1.1512473194\C,0,-0.2772934107,-3.2230515814,1.270889878\H,0,0.21
 43960839,-3.6784658629,0.4129641145\H,0,0.274963052,-3.4748571756,2.17
 73386435\C,0,-1.7283074097,-3.6608306316,1.4169354588\H,0,-1.732604403
 8,-4.7489314888,1.6300473845\H,0,-2.1465305442,-3.1605915384,2.2944416
 752\N,0,-2.5565092294,-3.3233400897,0.2698548626\C,0,-2.2455076697,-4.
 1207608544,-0.9102746788\H,0,-2.4041880535,-5.2022099272,-0.7394833798
 \H,0,-2.8885423353,-3.8074366682,-1.734999491\H,0,-1.2144442568,-3.954
 5129687,-1.2197071399\C,0,-3.9729638484,-3.3894537518,0.5978590326\H,0
 ,-4.3059809911,-4.4100060257,0.865429287\H,0,-4.1915647909,-2.72748025
 13,1.4389345957\H,0,-4.5626511911,-3.0565216151,-0.259011658\C,0,-0.54
 96697872,0.8963367785,1.2196107518\H,0,0.1722502859,0.6898187753,2.013
 6648504\H,0,-0.615102698,1.9762022412,1.0770273487\H,0,-1.5171651803,0
 .5284618224,1.5706249717\\Version=ES64L-G16RevA.03\State=1-A\HF=-519.2
 548845\RMSD=2.434e-09\Dipole=-0.4015379,0.0185989,0.6883511\Quadrupole
 =-1.8926036,3.590818,-1.6982144,0.761845,1.6216789,-1.7683457\PG=C01 [
 X(C8H15N1O2)]\\@


 MICRO CREDO - NEVER TRUST A COMPUTER BIGGER
               BIGGER THAN YOU CAN LIFT.
 Job cpu time:       0 days  0 hours  5 minutes 43.3 seconds.
 Elapsed time:       0 days  0 hours  5 minutes 44.7 seconds.
 File lengths (MBytes):  RWF=    304 Int=      0 D2E=      0 Chk=     32 Scr=     32
 Normal termination of Gaussian 16 at Thu Apr 21 16:48:46 2022.
