 Entering Gaussian System, Link 0=g16
 Initial command:
 /opt/ohpc/pub/libs/gaussian/g16-A.03/haswell/g16/l1.exe "g16_scratch/Gau-205478.inp" -scrdir="g16_scratch/"
 Entering Link 1 = /opt/ohpc/pub/libs/gaussian/g16-A.03/haswell/g16/l1.exe PID=    205479.
  
 Copyright (c) 1988,1990,1992,1993,1995,1998,2003,2009,2016,
            Gaussian, Inc.  All Rights Reserved.
  
 This is part of the Gaussian(R) 16 program.  It is based on
 the Gaussian(R) 09 system (copyright 2009, Gaussian, Inc.),
 the Gaussian(R) 03 system (copyright 2003, Gaussian, Inc.),
 the Gaussian(R) 98 system (copyright 1998, Gaussian, Inc.),
 the Gaussian(R) 94 system (copyright 1995, Gaussian, Inc.),
 the Gaussian 92(TM) system (copyright 1992, Gaussian, Inc.),
 the Gaussian 90(TM) system (copyright 1990, Gaussian, Inc.),
 the Gaussian 88(TM) system (copyright 1988, Gaussian, Inc.),
 the Gaussian 86(TM) system (copyright 1986, Carnegie Mellon
 University), and the Gaussian 82(TM) system (copyright 1983,
 Carnegie Mellon University). Gaussian is a federally registered
 trademark of Gaussian, Inc.
  
 This software contains proprietary and confidential information,
 including trade secrets, belonging to Gaussian, Inc.
  
 This software is provided under written license and may be
 used, copied, transmitted, or stored only in accord with that
 written license.
  
 The following legend is applicable only to US Government
 contracts under FAR:
  
                    RESTRICTED RIGHTS LEGEND
  
 Use, reproduction and disclosure by the US Government is
 subject to restrictions as set forth in subparagraphs (a)
 and (c) of the Commercial Computer Software - Restricted
 Rights clause in FAR 52.227-19.
  
 Gaussian, Inc.
 340 Quinnipiac St., Bldg. 40, Wallingford CT 06492
  
  
 ---------------------------------------------------------------
 Warning -- This program may not be used in any manner that
 competes with the business of Gaussian, Inc. or will provide
 assistance to any competitor of Gaussian, Inc.  The licensee
 of this program is prohibited from giving any competitor of
 Gaussian, Inc. access to this program.  By using this program,
 the user acknowledges that Gaussian, Inc. is engaged in the
 business of creating and licensing software in the field of
 computational chemistry and represents and warrants to the
 licensee that it is not a competitor of Gaussian, Inc. and that
 it will not use this program in any manner prohibited above.
 ---------------------------------------------------------------
  

 Cite this work as:
 Gaussian 16, Revision A.03,
 M. J. Frisch, G. W. Trucks, H. B. Schlegel, G. E. Scuseria, 
 M. A. Robb, J. R. Cheeseman, G. Scalmani, V. Barone, 
 G. A. Petersson, H. Nakatsuji, X. Li, M. Caricato, A. V. Marenich, 
 J. Bloino, B. G. Janesko, R. Gomperts, B. Mennucci, H. P. Hratchian, 
 J. V. Ortiz, A. F. Izmaylov, J. L. Sonnenberg, D. Williams-Young, 
 F. Ding, F. Lipparini, F. Egidi, J. Goings, B. Peng, A. Petrone, 
 T. Henderson, D. Ranasinghe, V. G. Zakrzewski, J. Gao, N. Rega, 
 G. Zheng, W. Liang, M. Hada, M. Ehara, K. Toyota, R. Fukuda, 
 J. Hasegawa, M. Ishida, T. Nakajima, Y. Honda, O. Kitao, H. Nakai, 
 T. Vreven, K. Throssell, J. A. Montgomery, Jr., J. E. Peralta, 
 F. Ogliaro, M. J. Bearpark, J. J. Heyd, E. N. Brothers, K. N. Kudin, 
 V. N. Staroverov, T. A. Keith, R. Kobayashi, J. Normand, 
 K. Raghavachari, A. P. Rendell, J. C. Burant, S. S. Iyengar, 
 J. Tomasi, M. Cossi, J. M. Millam, M. Klene, C. Adamo, R. Cammi, 
 J. W. Ochterski, R. L. Martin, K. Morokuma, O. Farkas, 
 J. B. Foresman, and D. J. Fox, Gaussian, Inc., Wallingford CT, 2016.
 
 ******************************************
 Gaussian 16:  ES64L-G16RevA.03 25-Dec-2016
                21-Apr-2022 
 ******************************************
 %Mem=192GB
 %NProcShared=48
 Will use up to   48 processors via shared memory.
 %Chk=DMAEMA-9.chk
 ---------------------------------------------------------------------
 #n B3LYP/6-311++G(d,p) Opt freq EmpiricalDispersion=GD3BJ IOp(6/33=2)
 ---------------------------------------------------------------------
 1/18=20,19=15,26=3,38=1/1,3;
 2/9=110,12=2,17=6,18=5,40=1/2;
 3/5=4,6=6,7=1111,11=2,25=1,30=1,71=1,74=-5,124=41/1,2,3;
 4//1;
 5/5=2,38=5/2;
 6/7=2,8=2,9=2,10=2,28=1,33=2/1;
 7//1,2,3,16;
 1/18=20,19=15,26=3/3(2);
 2/9=110/2;
 99//99;
 2/9=110/2;
 3/5=4,6=6,7=1111,11=2,25=1,30=1,71=1,74=-5,124=41/1,2,3;
 4/5=5,16=3,69=1/1;
 5/5=2,38=5/2;
 7//1,2,3,16;
 1/18=20,19=15,26=3/3(-5);
 2/9=110/2;
 6/7=2,8=2,9=2,10=2,19=2,28=1,33=2/1;
 99/9=1/99;
 --------------
 DMAEMA geo opt
 --------------
 Symbolic Z-matrix:
 Charge =  0 Multiplicity = 1
 H                     4.12961  -0.87701  -0.67466 
 C                     3.86842   0.16394  -0.5291 
 H                     4.63299   0.91222  -0.70446 
 C                     2.63638   0.50919  -0.14535 
 C                     1.6489   -0.59986   0.06785 
 O                     1.87142  -1.77902  -0.09212 
 O                     0.45124  -0.1219    0.46769 
 C                    -0.5916   -1.09468   0.68677 
 H                    -0.63133  -1.77184  -0.16722 
 H                    -0.33649  -1.69059   1.56765 
 C                    -1.89709  -0.35305   0.91649 
 H                    -2.62544  -1.07671   1.33373 
 H                    -1.72601   0.40204   1.68831 
 N                    -2.42165   0.31607  -0.27 
 C                    -2.98767  -0.61289  -1.23964 
 H                    -3.86253  -1.16245  -0.84216 
 H                    -3.30596  -0.06386  -2.12861 
 H                    -2.24266  -1.34495  -1.55578 
 C                    -3.37627   1.36048   0.07727 
 H                    -4.28268   0.97026   0.57831 
 H                    -2.90547   2.08887   0.74145 
 H                    -3.69262   1.88398  -0.82813 
 C                     2.19672   1.93188   0.07678 
 H                     1.87126   2.08782   1.10897 
 H                     3.01498   2.62169  -0.13763 
 H                     1.34591   2.18537  -0.5608 
 

 GradGradGradGradGradGradGradGradGradGradGradGradGradGradGradGradGradGrad
 Berny optimization.
 Initialization pass.
                           ----------------------------
                           !    Initial Parameters    !
                           ! (Angstroms and Degrees)  !
 --------------------------                            --------------------------
 ! Name  Definition              Value          Derivative Info.                !
 --------------------------------------------------------------------------------
 ! R1    R(1,2)                  1.083          estimate D2E/DX2                !
 ! R2    R(2,3)                  1.0841         estimate D2E/DX2                !
 ! R3    R(2,4)                  1.3358         estimate D2E/DX2                !
 ! R4    R(4,5)                  1.5002         estimate D2E/DX2                !
 ! R5    R(4,23)                 1.5056         estimate D2E/DX2                !
 ! R6    R(5,6)                  1.2106         estimate D2E/DX2                !
 ! R7    R(5,7)                  1.3501         estimate D2E/DX2                !
 ! R8    R(7,8)                  1.4428         estimate D2E/DX2                !
 ! R9    R(8,9)                  1.0906         estimate D2E/DX2                !
 ! R10   R(8,10)                 1.0937         estimate D2E/DX2                !
 ! R11   R(8,11)                 1.5189         estimate D2E/DX2                !
 ! R12   R(11,12)                1.1083         estimate D2E/DX2                !
 ! R13   R(11,13)                1.0932         estimate D2E/DX2                !
 ! R14   R(11,14)                1.4597         estimate D2E/DX2                !
 ! R15   R(14,15)                1.4572         estimate D2E/DX2                !
 ! R16   R(14,19)                1.4569         estimate D2E/DX2                !
 ! R17   R(15,16)                1.107          estimate D2E/DX2                !
 ! R18   R(15,17)                1.0923         estimate D2E/DX2                !
 ! R19   R(15,18)                1.0913         estimate D2E/DX2                !
 ! R20   R(19,20)                1.1067         estimate D2E/DX2                !
 ! R21   R(19,21)                1.0924         estimate D2E/DX2                !
 ! R22   R(19,22)                1.0926         estimate D2E/DX2                !
 ! R23   R(23,24)                1.0935         estimate D2E/DX2                !
 ! R24   R(23,25)                1.0915         estimate D2E/DX2                !
 ! R25   R(23,26)                1.093          estimate D2E/DX2                !
 ! A1    A(1,2,3)              118.1375         estimate D2E/DX2                !
 ! A2    A(1,2,4)              120.6273         estimate D2E/DX2                !
 ! A3    A(3,2,4)              121.2352         estimate D2E/DX2                !
 ! A4    A(2,4,5)              117.1847         estimate D2E/DX2                !
 ! A5    A(2,4,23)             123.7768         estimate D2E/DX2                !
 ! A6    A(5,4,23)             119.0384         estimate D2E/DX2                !
 ! A7    A(4,5,6)              125.4724         estimate D2E/DX2                !
 ! A8    A(4,5,7)              111.3641         estimate D2E/DX2                !
 ! A9    A(6,5,7)              123.1634         estimate D2E/DX2                !
 ! A10   A(5,7,8)              116.5803         estimate D2E/DX2                !
 ! A11   A(7,8,9)              109.0293         estimate D2E/DX2                !
 ! A12   A(7,8,10)             108.7269         estimate D2E/DX2                !
 ! A13   A(7,8,11)             108.3597         estimate D2E/DX2                !
 ! A14   A(9,8,10)             107.5099         estimate D2E/DX2                !
 ! A15   A(9,8,11)             112.972          estimate D2E/DX2                !
 ! A16   A(10,8,11)            110.164          estimate D2E/DX2                !
 ! A17   A(8,11,12)            107.6362         estimate D2E/DX2                !
 ! A18   A(8,11,13)            108.0302         estimate D2E/DX2                !
 ! A19   A(8,11,14)            114.1898         estimate D2E/DX2                !
 ! A20   A(12,11,13)           106.7414         estimate D2E/DX2                !
 ! A21   A(12,11,14)           111.6641         estimate D2E/DX2                !
 ! A22   A(13,11,14)           108.2698         estimate D2E/DX2                !
 ! A23   A(11,14,15)           112.8442         estimate D2E/DX2                !
 ! A24   A(11,14,19)           111.7357         estimate D2E/DX2                !
 ! A25   A(15,14,19)           111.1663         estimate D2E/DX2                !
 ! A26   A(14,15,16)           112.6146         estimate D2E/DX2                !
 ! A27   A(14,15,17)           109.5306         estimate D2E/DX2                !
 ! A28   A(14,15,18)           110.8075         estimate D2E/DX2                !
 ! A29   A(16,15,17)           108.1488         estimate D2E/DX2                !
 ! A30   A(16,15,18)           108.0913         estimate D2E/DX2                !
 ! A31   A(17,15,18)           107.4791         estimate D2E/DX2                !
 ! A32   A(14,19,20)           113.0649         estimate D2E/DX2                !
 ! A33   A(14,19,21)           109.9082         estimate D2E/DX2                !
 ! A34   A(14,19,22)           109.6118         estimate D2E/DX2                !
 ! A35   A(20,19,21)           108.2286         estimate D2E/DX2                !
 ! A36   A(20,19,22)           107.875          estimate D2E/DX2                !
 ! A37   A(21,19,22)           108.0065         estimate D2E/DX2                !
 ! A38   A(4,23,24)            111.1588         estimate D2E/DX2                !
 ! A39   A(4,23,25)            110.4444         estimate D2E/DX2                !
 ! A40   A(4,23,26)            111.1254         estimate D2E/DX2                !
 ! A41   A(24,23,25)           108.5683         estimate D2E/DX2                !
 ! A42   A(24,23,26)           106.6115         estimate D2E/DX2                !
 ! A43   A(25,23,26)           108.808          estimate D2E/DX2                !
 ! D1    D(1,2,4,5)             -0.1002         estimate D2E/DX2                !
 ! D2    D(1,2,4,23)          -179.9549         estimate D2E/DX2                !
 ! D3    D(3,2,4,5)            179.8362         estimate D2E/DX2                !
 ! D4    D(3,2,4,23)            -0.0186         estimate D2E/DX2                !
 ! D5    D(2,4,5,6)             -0.8128         estimate D2E/DX2                !
 ! D6    D(2,4,5,7)            179.2534         estimate D2E/DX2                !
 ! D7    D(23,4,5,6)           179.0491         estimate D2E/DX2                !
 ! D8    D(23,4,5,7)            -0.8847         estimate D2E/DX2                !
 ! D9    D(2,4,23,24)         -119.5146         estimate D2E/DX2                !
 ! D10   D(2,4,23,25)            1.0621         estimate D2E/DX2                !
 ! D11   D(2,4,23,26)          121.9188         estimate D2E/DX2                !
 ! D12   D(5,4,23,24)           60.6332         estimate D2E/DX2                !
 ! D13   D(5,4,23,25)         -178.7901         estimate D2E/DX2                !
 ! D14   D(5,4,23,26)          -57.9334         estimate D2E/DX2                !
 ! D15   D(4,5,7,8)            179.091          estimate D2E/DX2                !
 ! D16   D(6,5,7,8)             -0.8446         estimate D2E/DX2                !
 ! D17   D(5,7,8,9)            -48.0375         estimate D2E/DX2                !
 ! D18   D(5,7,8,10)            68.8973         estimate D2E/DX2                !
 ! D19   D(5,7,8,11)          -171.3666         estimate D2E/DX2                !
 ! D20   D(7,8,11,12)         -165.8282         estimate D2E/DX2                !
 ! D21   D(7,8,11,13)          -50.9084         estimate D2E/DX2                !
 ! D22   D(7,8,11,14)           69.5979         estimate D2E/DX2                !
 ! D23   D(9,8,11,12)           73.2538         estimate D2E/DX2                !
 ! D24   D(9,8,11,13)         -171.8263         estimate D2E/DX2                !
 ! D25   D(9,8,11,14)          -51.3201         estimate D2E/DX2                !
 ! D26   D(10,8,11,12)         -46.9969         estimate D2E/DX2                !
 ! D27   D(10,8,11,13)          67.9229         estimate D2E/DX2                !
 ! D28   D(10,8,11,14)        -171.5708         estimate D2E/DX2                !
 ! D29   D(8,11,14,15)          73.6155         estimate D2E/DX2                !
 ! D30   D(8,11,14,19)        -160.2455         estimate D2E/DX2                !
 ! D31   D(12,11,14,15)        -48.7837         estimate D2E/DX2                !
 ! D32   D(12,11,14,19)         77.3553         estimate D2E/DX2                !
 ! D33   D(13,11,14,15)       -166.0119         estimate D2E/DX2                !
 ! D34   D(13,11,14,19)        -39.8729         estimate D2E/DX2                !
 ! D35   D(11,14,15,16)         63.1132         estimate D2E/DX2                !
 ! D36   D(11,14,15,17)       -176.5029         estimate D2E/DX2                !
 ! D37   D(11,14,15,18)        -58.0961         estimate D2E/DX2                !
 ! D38   D(19,14,15,16)        -63.3304         estimate D2E/DX2                !
 ! D39   D(19,14,15,17)         57.0535         estimate D2E/DX2                !
 ! D40   D(19,14,15,18)        175.4603         estimate D2E/DX2                !
 ! D41   D(11,14,19,20)        -63.5721         estimate D2E/DX2                !
 ! D42   D(11,14,19,21)         57.4793         estimate D2E/DX2                !
 ! D43   D(11,14,19,22)        176.0383         estimate D2E/DX2                !
 ! D44   D(15,14,19,20)         63.4801         estimate D2E/DX2                !
 ! D45   D(15,14,19,21)       -175.4685         estimate D2E/DX2                !
 ! D46   D(15,14,19,22)        -56.9096         estimate D2E/DX2                !
 --------------------------------------------------------------------------------
 Trust Radius=3.00D-01 FncErr=1.00D-07 GrdErr=1.00D-06 EigMax=2.50D+02 EigMin=1.00D-04
 Number of steps in this run=    124 maximum allowed number of steps=    156.
 GradGradGradGradGradGradGradGradGradGradGradGradGradGradGradGradGradGrad

                          Input orientation:                          
 ---------------------------------------------------------------------
 Center     Atomic      Atomic             Coordinates (Angstroms)
 Number     Number       Type             X           Y           Z
 ---------------------------------------------------------------------
      1          1           0        4.129610   -0.877010   -0.674660
      2          6           0        3.868420    0.163940   -0.529100
      3          1           0        4.632990    0.912220   -0.704460
      4          6           0        2.636380    0.509190   -0.145350
      5          6           0        1.648900   -0.599860    0.067850
      6          8           0        1.871420   -1.779020   -0.092120
      7          8           0        0.451240   -0.121900    0.467690
      8          6           0       -0.591600   -1.094680    0.686770
      9          1           0       -0.631330   -1.771840   -0.167220
     10          1           0       -0.336490   -1.690590    1.567650
     11          6           0       -1.897090   -0.353050    0.916490
     12          1           0       -2.625440   -1.076710    1.333730
     13          1           0       -1.726010    0.402040    1.688310
     14          7           0       -2.421650    0.316070   -0.270000
     15          6           0       -2.987670   -0.612890   -1.239640
     16          1           0       -3.862530   -1.162450   -0.842160
     17          1           0       -3.305960   -0.063860   -2.128610
     18          1           0       -2.242660   -1.344950   -1.555780
     19          6           0       -3.376270    1.360480    0.077270
     20          1           0       -4.282680    0.970260    0.578310
     21          1           0       -2.905470    2.088870    0.741450
     22          1           0       -3.692620    1.883980   -0.828130
     23          6           0        2.196720    1.931880    0.076780
     24          1           0        1.871260    2.087820    1.108970
     25          1           0        3.014980    2.621690   -0.137630
     26          1           0        1.345910    2.185370   -0.560800
 ---------------------------------------------------------------------
                    Distance matrix (angstroms):
                    1          2          3          4          5
     1  H    0.000000
     2  C    1.083044   0.000000
     3  H    1.858931   1.084086   0.000000
     4  C    2.105102   1.335808   2.112224   0.000000
     5  C    2.604238   2.421984   3.433314   1.500188   0.000000
     6  O    2.500479   2.820293   3.904357   2.413276   1.210588
     7  O    3.924992   3.571052   4.464345   2.355617   1.350077
     8  C    4.918404   4.791059   5.767106   3.699281   2.376499
     9  H    4.870808   4.911818   5.933453   3.985161   2.574538
    10  H    5.063192   5.051427   6.052507   4.075703   2.716775
    11  C    6.255190   5.966416   6.846191   4.735326   3.654470
    12  H    7.050121   6.868738   7.797106   5.691178   4.483282
    13  H    6.442661   6.022561   6.813407   4.733311   3.875527
    14  N    6.671297   6.297242   7.093102   5.063250   4.185982
    15  C    7.144553   6.936447   7.790176   5.838362   4.817414
    16  H    7.998990   7.850153   8.746261   6.746537   5.614311
    17  H    7.619901   7.354050   8.124522   6.290716   5.446317
    18  H    6.449897   6.377783   7.286572   5.406679   4.282006
    19  C    7.868290   7.367830   8.059794   6.076694   5.394011
    20  H    8.703388   8.265406   9.007666   6.972063   6.157068
    21  H    7.764932   7.155784   7.765535   5.830429   5.331537
    22  H    8.296620   7.759980   8.383042   6.512486   5.958530
    23  C    3.491502   2.507446   2.754170   1.505553   2.590346
    24  H    4.131791   3.220751   3.506810   2.156571   2.890847
    25  H    3.711025   2.630997   2.421062   2.146172   3.505250
    26  H    4.140063   3.232683   3.527952   2.155804   2.871325
                    6          7          8          9         10
     6  O    0.000000
     7  O    2.253075   0.000000
     8  C    2.672351   1.442849   0.000000
     9  H    2.503887   2.073010   1.090607   0.000000
    10  H    2.763607   2.071526   1.093682   1.761620   0.000000
    11  C    4.153595   2.401980   1.518911   2.188502   2.156037
    12  H    4.769490   3.335813   2.134335   2.590855   2.381357
    13  H    4.568201   2.550460   2.128412   3.060567   2.514841
    14  N    4.780324   2.998250   2.500941   2.752304   3.428051
    15  C    5.127126   3.870678   3.111965   2.836475   4.008874
    16  H    5.815574   4.626777   3.611261   3.356718   4.303379
    17  H    5.821884   4.567351   4.044342   3.730669   5.012618
    18  H    4.388208   3.584324   2.796009   2.169497   3.675427
    19  C    6.117467   4.123071   3.762139   4.172038   4.557469
    20  H    6.773549   4.859532   4.230817   4.626801   4.861207
    21  H    6.202749   4.028641   3.935985   4.571923   4.643983
    22  H    6.702076   4.782706   4.558910   4.813867   5.457190
    23  C    3.728958   2.723513   4.160154   4.666363   4.664990
    24  H    4.049082   2.703805   4.046262   4.773740   4.400106
    25  H    4.547092   3.803480   5.243897   5.709602   5.721546
    26  H    4.026439   2.679873   4.008629   4.441159   4.731156
                   11         12         13         14         15
    11  C    0.000000
    12  H    1.108272   0.000000
    13  H    1.093222   1.766749   0.000000
    14  N    1.459672   2.133850   2.079972   0.000000
    15  C    2.430181   2.639805   3.345857   1.457240   0.000000
    16  H    2.758792   2.504444   3.662735   2.142317   1.106972
    17  H    3.367667   3.671072   4.157185   2.093032   1.092250
    18  H    2.686150   2.927070   3.720621   2.108140   1.091282
    19  C    2.414218   2.842944   2.497482   1.456945   2.404049
    20  H    2.748919   2.739925   2.844562   2.147330   2.736486
    21  H    2.647724   3.232663   2.265627   2.097602   3.351266
    22  H    3.357370   3.818141   3.520820   2.094091   2.626910
    23  C    4.762909   5.821062   4.508353   4.905144   5.923404
    24  H    4.493924   5.503188   4.014703   4.844557   6.034816
    25  H    5.838551   6.903434   5.544176   5.906805   6.907151
    26  H    4.375273   5.477411   4.204219   4.215846   5.202980
                   16         17         18         19         20
    16  H    0.000000
    17  H    1.780905   0.000000
    18  H    1.779477   1.760663   0.000000
    19  C    2.728915   2.626708   3.357272   0.000000
    20  H    2.596673   3.057908   3.751829   1.106748   0.000000
    21  H    3.740971   3.609970   4.184221   1.092401   1.781744
    22  H    3.051197   2.373781   3.613564   1.092648   1.777956
    23  C    6.865409   6.255095   5.754213   5.602206   6.569541
    24  H    6.873683   6.474199   5.984074   5.397221   6.277063
    25  H    7.881385   7.150557   6.737074   6.518045   7.516358
    26  H    6.197976   5.399718   5.131372   4.835965   5.869846
                   21         22         23         24         25
    21  H    0.000000
    22  H    1.767814   0.000000
    23  C    5.147696   5.958648   0.000000
    24  H    4.790848   5.894970   1.093461   0.000000
    25  H    6.009027   6.783281   1.091494   1.774014   0.000000
    26  H    4.447404   5.054610   1.092997   1.753180   1.776300
                   26
    26  H    0.000000
 Stoichiometry    C8H15NO2
 Framework group  C1[X(C8H15NO2)]
 Deg. of freedom    72
 Full point group                 C1      NOp   1
 Largest Abelian subgroup         C1      NOp   1
 Largest concise Abelian subgroup C1      NOp   1
                         Standard orientation:                         
 ---------------------------------------------------------------------
 Center     Atomic      Atomic             Coordinates (Angstroms)
 Number     Number       Type             X           Y           Z
 ---------------------------------------------------------------------
      1          1           0       -4.129610   -0.877010    0.674659
      2          6           0       -3.868420    0.163940    0.529099
      3          1           0       -4.632990    0.912220    0.704459
      4          6           0       -2.636380    0.509190    0.145349
      5          6           0       -1.648900   -0.599860   -0.067851
      6          8           0       -1.871420   -1.779020    0.092119
      7          8           0       -0.451240   -0.121900   -0.467691
      8          6           0        0.591600   -1.094680   -0.686771
      9          1           0        0.631330   -1.771840    0.167219
     10          1           0        0.336490   -1.690590   -1.567651
     11          6           0        1.897090   -0.353050   -0.916491
     12          1           0        2.625440   -1.076710   -1.333731
     13          1           0        1.726010    0.402040   -1.688311
     14          7           0        2.421650    0.316070    0.269999
     15          6           0        2.987670   -0.612890    1.239639
     16          1           0        3.862530   -1.162451    0.842159
     17          1           0        3.305960   -0.063860    2.128609
     18          1           0        2.242660   -1.344950    1.555779
     19          6           0        3.376270    1.360479   -0.077271
     20          1           0        4.282680    0.970259   -0.578311
     21          1           0        2.905470    2.088870   -0.741451
     22          1           0        3.692620    1.883979    0.828129
     23          6           0       -2.196720    1.931880   -0.076781
     24          1           0       -1.871260    2.087820   -1.108971
     25          1           0       -3.014980    2.621690    0.137629
     26          1           0       -1.345910    2.185370    0.560799
 ---------------------------------------------------------------------
 Rotational constants (GHZ):           2.0544373           0.5141678           0.4570975
 Standard basis: 6-311++G(d,p) (5D, 7F)
 There are   358 symmetry adapted cartesian basis functions of A   symmetry.
 There are   347 symmetry adapted basis functions of A   symmetry.
   347 basis functions,   531 primitive gaussians,   358 cartesian basis functions
    43 alpha electrons       43 beta electrons
       nuclear repulsion energy       633.8841710097 Hartrees.
 NAtoms=   26 NActive=   26 NUniq=   26 SFac= 1.00D+00 NAtFMM=   60 NAOKFM=F Big=F
 Integral buffers will be    131072 words long.
 Raffenetti 2 integral format.
 Two-electron integral symmetry is turned on.
 Nuclear repulsion after empirical dispersion term =      633.8460747953 Hartrees.
 One-electron integrals computed using PRISM.
 NBasis=   347 RedAO= T EigKep=  5.62D-06  NBF=   347
 NBsUse=   347 1.00D-06 EigRej= -1.00D+00 NBFU=   347
 ExpMin= 3.60D-02 ExpMax= 8.59D+03 ExpMxC= 1.30D+03 IAcc=3 IRadAn=         5 AccDes= 0.00D+00
 Harris functional with IExCor=  402 and IRadAn=       5 diagonalized for initial guess.
 HarFok:  IExCor=  402 AccDes= 0.00D+00 IRadAn=         5 IDoV= 1 UseB2=F ITyADJ=14
 ICtDFT=  3500011 ScaDFX=  1.000000  1.000000  1.000000  1.000000
 FoFCou: FMM=F IPFlag=           0 FMFlag=      100000 FMFlg1=           0
         NFxFlg=           0 DoJE=T BraDBF=F KetDBF=T FulRan=T
         wScrn=  0.000000 ICntrl=       500 IOpCl=  0 I1Cent=   200000004 NGrid=           0
         NMat0=    1 NMatS0=      1 NMatT0=    0 NMatD0=    1 NMtDS0=    0 NMtDT0=    0
 Petite list used in FoFCou.
 Requested convergence on RMS density matrix=1.00D-08 within 128 cycles.
 Requested convergence on MAX density matrix=1.00D-06.
 Requested convergence on             energy=1.00D-06.
 No special actions if energy rises.
 SCF Done:  E(RB3LYP) =  -519.252666419     A.U. after   13 cycles
            NFock= 13  Conv=0.10D-07     -V/T= 2.0043
 SCF density gives NOpUse=  1 NOpAll=  1.

 **********************************************************************

            Population analysis using the SCF density.

 **********************************************************************

 Orbital symmetries:
 BldTbl:  Degeneracy threshold= 1.00D-02
       Occupied  (A) (A) (A) (A) (A) (A) (A) (A) (A) (A) (A) (A)
                 (A) (A) (A) (A) (A) (A) (A) (A) (A) (A) (A) (A)
                 (A) (A) (A) (A) (A) (A) (A) (A) (A) (A) (A) (A)
                 (A) (A) (A) (A) (A) (A) (A)
       Virtual   (A) (A) (A) (A) (A) (A) (A) (A) (A) (A) (A) (A)
                 (A) (A) (A) (A) (A) (A) (A) (A) (A) (A) (A) (A)
                 (A) (A) (A) (A) (A) (A) (A) (A) (A) (A) (A) (A)
                 (A) (A) (A) (A) (A) (A) (A) (A) (A) (A) (A) (A)
                 (A) (A) (A) (A) (A) (A) (A) (A) (A) (A) (A) (A)
                 (A) (A) (A) (A) (A) (A) (A) (A) (A) (A) (A) (A)
                 (A) (A) (A) (A) (A) (A) (A) (A) (A) (A) (A) (A)
                 (A) (A) (A) (A) (A) (A) (A) (A) (A) (A) (A) (A)
                 (A) (A) (A) (A) (A) (A) (A) (A) (A) (A) (A) (A)
                 (A) (A) (A) (A) (A) (A) (A) (A) (A) (A) (A) (A)
                 (A) (A) (A) (A) (A) (A) (A) (A) (A) (A) (A) (A)
                 (A) (A) (A) (A) (A) (A) (A) (A) (A) (A) (A) (A)
                 (A) (A) (A) (A) (A) (A) (A) (A) (A) (A) (A) (A)
                 (A) (A) (A) (A) (A) (A) (A) (A) (A) (A) (A) (A)
                 (A) (A) (A) (A) (A) (A) (A) (A) (A) (A) (A) (A)
                 (A) (A) (A) (A) (A) (A) (A) (A) (A) (A) (A) (A)
                 (A) (A) (A) (A) (A) (A) (A) (A) (A) (A) (A) (A)
                 (A) (A) (A) (A) (A) (A) (A) (A) (A) (A) (A) (A)
                 (A) (A) (A) (A) (A) (A) (A) (A) (A) (A) (A) (A)
                 (A) (A) (A) (A) (A) (A) (A) (A) (A) (A) (A) (A)
                 (A) (A) (A) (A) (A) (A) (A) (A) (A) (A) (A) (A)
                 (A) (A) (A) (A) (A) (A) (A) (A) (A) (A) (A) (A)
                 (A) (A) (A) (A) (A) (A) (A) (A) (A) (A) (A) (A)
                 (A) (A) (A) (A) (A) (A) (A) (A) (A) (A) (A) (A)
                 (A) (A) (A) (A) (A) (A) (A) (A) (A) (A) (A) (A)
                 (A) (A) (A) (A)
 The electronic state is 1-A.
 Alpha  occ. eigenvalues --  -19.16807 -19.10749 -14.31361 -10.30058 -10.23180
 Alpha  occ. eigenvalues --  -10.20618 -10.19689 -10.19279 -10.19258 -10.17894
 Alpha  occ. eigenvalues --  -10.17070  -1.10878  -1.02036  -0.93207  -0.81898
 Alpha  occ. eigenvalues --   -0.77282  -0.71410  -0.69840  -0.68093  -0.62444
 Alpha  occ. eigenvalues --   -0.58344  -0.55849  -0.50787  -0.49866  -0.48200
 Alpha  occ. eigenvalues --   -0.47292  -0.46758  -0.46092  -0.43460  -0.42368
 Alpha  occ. eigenvalues --   -0.40993  -0.40329  -0.39997  -0.39328  -0.38759
 Alpha  occ. eigenvalues --   -0.37817  -0.36970  -0.36749  -0.34871  -0.31012
 Alpha  occ. eigenvalues --   -0.28066  -0.27337  -0.22609
 Alpha virt. eigenvalues --   -0.05081  -0.01275  -0.00060   0.00617   0.00835
 Alpha virt. eigenvalues --    0.01885   0.02489   0.03357   0.03414   0.03795
 Alpha virt. eigenvalues --    0.03983   0.04486   0.05568   0.05730   0.06649
 Alpha virt. eigenvalues --    0.06719   0.07242   0.07815   0.07951   0.08881
 Alpha virt. eigenvalues --    0.09789   0.09920   0.10140   0.10340   0.10709
 Alpha virt. eigenvalues --    0.11517   0.11789   0.12385   0.12519   0.12692
 Alpha virt. eigenvalues --    0.13085   0.13443   0.13747   0.14051   0.14363
 Alpha virt. eigenvalues --    0.14397   0.15202   0.15307   0.15790   0.16345
 Alpha virt. eigenvalues --    0.16509   0.16653   0.17032   0.17754   0.17855
 Alpha virt. eigenvalues --    0.18453   0.18586   0.19501   0.19894   0.20292
 Alpha virt. eigenvalues --    0.20456   0.21377   0.21772   0.22290   0.23354
 Alpha virt. eigenvalues --    0.24337   0.24465   0.24836   0.26054   0.26252
 Alpha virt. eigenvalues --    0.26944   0.27261   0.27493   0.27921   0.28984
 Alpha virt. eigenvalues --    0.29657   0.30113   0.30707   0.31424   0.31643
 Alpha virt. eigenvalues --    0.32126   0.33222   0.33857   0.34282   0.35408
 Alpha virt. eigenvalues --    0.35642   0.36106   0.36417   0.36782   0.38639
 Alpha virt. eigenvalues --    0.40536   0.41452   0.42122   0.42825   0.43464
 Alpha virt. eigenvalues --    0.44918   0.46136   0.47441   0.50664   0.52174
 Alpha virt. eigenvalues --    0.52618   0.53432   0.54325   0.56505   0.57139
 Alpha virt. eigenvalues --    0.57487   0.58342   0.59224   0.60027   0.60659
 Alpha virt. eigenvalues --    0.61048   0.62763   0.63834   0.64078   0.64575
 Alpha virt. eigenvalues --    0.65349   0.66133   0.66243   0.67120   0.68052
 Alpha virt. eigenvalues --    0.69559   0.70674   0.71490   0.72760   0.73222
 Alpha virt. eigenvalues --    0.73934   0.75213   0.75788   0.76206   0.77185
 Alpha virt. eigenvalues --    0.79198   0.80093   0.82476   0.84520   0.85739
 Alpha virt. eigenvalues --    0.87480   0.89806   0.91087   0.92601   0.94797
 Alpha virt. eigenvalues --    0.96248   0.97548   0.99790   1.01242   1.03238
 Alpha virt. eigenvalues --    1.04863   1.05348   1.07781   1.08665   1.11030
 Alpha virt. eigenvalues --    1.11824   1.15179   1.16736   1.18438   1.20637
 Alpha virt. eigenvalues --    1.23635   1.27970   1.28898   1.30934   1.32004
 Alpha virt. eigenvalues --    1.35011   1.36836   1.39208   1.42529   1.44720
 Alpha virt. eigenvalues --    1.45360   1.45875   1.46609   1.47660   1.48027
 Alpha virt. eigenvalues --    1.48981   1.51261   1.54108   1.55347   1.55929
 Alpha virt. eigenvalues --    1.57189   1.58332   1.58751   1.60333   1.60722
 Alpha virt. eigenvalues --    1.61192   1.62350   1.63359   1.64350   1.65344
 Alpha virt. eigenvalues --    1.65740   1.67475   1.69235   1.69324   1.71697
 Alpha virt. eigenvalues --    1.72072   1.73568   1.74210   1.76723   1.77156
 Alpha virt. eigenvalues --    1.80758   1.81891   1.83218   1.84128   1.85287
 Alpha virt. eigenvalues --    1.86395   1.87673   1.89106   1.94478   1.97647
 Alpha virt. eigenvalues --    2.00714   2.00906   2.01553   2.03369   2.04554
 Alpha virt. eigenvalues --    2.07020   2.08374   2.11997   2.12117   2.14141
 Alpha virt. eigenvalues --    2.16700   2.18345   2.19556   2.20451   2.26076
 Alpha virt. eigenvalues --    2.26391   2.30949   2.34896   2.35192   2.39632
 Alpha virt. eigenvalues --    2.43751   2.44155   2.46128   2.47985   2.48691
 Alpha virt. eigenvalues --    2.49951   2.50443   2.51521   2.52694   2.53409
 Alpha virt. eigenvalues --    2.54980   2.55485   2.56816   2.56982   2.60699
 Alpha virt. eigenvalues --    2.61276   2.63034   2.65293   2.66475   2.68410
 Alpha virt. eigenvalues --    2.68699   2.70311   2.71009   2.73961   2.74915
 Alpha virt. eigenvalues --    2.76181   2.76501   2.78884   2.80978   2.82302
 Alpha virt. eigenvalues --    2.83882   2.87426   2.89109   2.92705   2.95795
 Alpha virt. eigenvalues --    2.96795   2.97881   3.02283   3.03495   3.05251
 Alpha virt. eigenvalues --    3.08136   3.09698   3.10704   3.16522   3.22537
 Alpha virt. eigenvalues --    3.27736   3.29984   3.37457   3.38323   3.53292
 Alpha virt. eigenvalues --    3.54661   3.58496   3.65316   3.70589   3.73223
 Alpha virt. eigenvalues --    3.75481   3.76078   3.77128   3.78834   3.79116
 Alpha virt. eigenvalues --    3.81259   3.82372   3.86050   3.86893   4.07197
 Alpha virt. eigenvalues --    4.10304   4.19005   4.27757   4.33110   4.33569
 Alpha virt. eigenvalues --    4.87324   4.89167   5.04339   5.07679   5.24145
 Alpha virt. eigenvalues --    5.39003   5.68634   5.88629  23.72041  23.85630
 Alpha virt. eigenvalues --   23.86250  23.89904  23.93959  23.95483  23.97503
 Alpha virt. eigenvalues --   24.23662  35.52151  49.91366  50.03951
          Condensed to atoms (all electrons):
               1          2          3          4          5          6
     1  H    0.475275   0.358136  -0.027819  -0.055460   0.033742  -0.001413
     2  C    0.358136   7.098941   0.413962  -0.762750   0.150110   0.131042
     3  H   -0.027819   0.413962   0.532873  -0.060305   0.052720  -0.000960
     4  C   -0.055460  -0.762750  -0.060305   8.154207  -1.653971  -0.040442
     5  C    0.033742   0.150110   0.052720  -1.653971   7.948617   0.346649
     6  O   -0.001413   0.131042  -0.000960  -0.040442   0.346649   8.115484
     7  O   -0.001944  -0.035357  -0.005337  -0.422689   0.094250  -0.179305
     8  C   -0.005192  -0.045086   0.002103  -0.278990  -0.149734  -0.072280
     9  H    0.000873  -0.012983  -0.000238  -0.020632   0.015816  -0.006938
    10  H   -0.000281  -0.008449   0.000010  -0.017878  -0.003223  -0.014949
    11  C    0.000517   0.041009  -0.000156  -0.025804   0.026134   0.013657
    12  H   -0.000012   0.000952   0.000030   0.013269  -0.001453   0.003461
    13  H   -0.000029  -0.005001  -0.000036  -0.015527   0.013994  -0.003355
    14  N    0.000195  -0.008080  -0.000029   0.012753   0.029226   0.002226
    15  C    0.000118   0.001824  -0.000021   0.005277   0.015077   0.003437
    16  H    0.000001  -0.000622   0.000001  -0.000150   0.000182  -0.000172
    17  H    0.000017   0.000415   0.000004   0.001661  -0.000208   0.000432
    18  H   -0.000220   0.001308  -0.000022  -0.010761  -0.005085  -0.003967
    19  C    0.000115   0.000375  -0.000015   0.006524   0.016089   0.000854
    20  H   -0.000003  -0.000143  -0.000002  -0.000367  -0.000825  -0.000054
    21  H    0.000025   0.000085   0.000005  -0.000213   0.002129   0.000122
    22  H    0.000003   0.000107  -0.000004   0.000509  -0.000176   0.000008
    23  C    0.021741  -0.627187  -0.048697   0.295502  -0.463827  -0.017420
    24  H   -0.002281  -0.015479   0.000871  -0.010886   0.004662  -0.001724
    25  H    0.001584   0.039068   0.004674  -0.068801  -0.026452   0.002199
    26  H   -0.002228  -0.040336   0.001695  -0.019201   0.010010  -0.003220
               7          8          9         10         11         12
     1  H   -0.001944  -0.005192   0.000873  -0.000281   0.000517  -0.000012
     2  C   -0.035357  -0.045086  -0.012983  -0.008449   0.041009   0.000952
     3  H   -0.005337   0.002103  -0.000238   0.000010  -0.000156   0.000030
     4  C   -0.422689  -0.278990  -0.020632  -0.017878  -0.025804   0.013269
     5  C    0.094250  -0.149734   0.015816  -0.003223   0.026134  -0.001453
     6  O   -0.179305  -0.072280  -0.006938  -0.014949   0.013657   0.003461
     7  O    8.427591   0.347770  -0.045974  -0.035647  -0.126417   0.020342
     8  C    0.347770   6.365253   0.352206   0.439127  -0.479122  -0.043044
     9  H   -0.045974   0.352206   0.573264  -0.053353  -0.008729  -0.023800
    10  H   -0.035647   0.439127  -0.053353   0.586460  -0.055937   0.017913
    11  C   -0.126417  -0.479122  -0.008729  -0.055937   6.562110   0.382965
    12  H    0.020342  -0.043044  -0.023800   0.017913   0.382965   0.678115
    13  H   -0.020493  -0.092126   0.019179  -0.016604   0.472240  -0.062167
    14  N   -0.009660  -0.006840  -0.004806  -0.013836   0.040730  -0.144756
    15  C   -0.002105   0.002500   0.003916  -0.011214  -0.243198   0.006552
    16  H    0.000506   0.063497  -0.005320   0.004436  -0.071189   0.047217
    17  H   -0.001533  -0.017815  -0.000556  -0.000858   0.029535  -0.002645
    18  H    0.004938  -0.049006   0.010445  -0.000929   0.081349  -0.005352
    19  C   -0.010463  -0.099086   0.006594  -0.007742  -0.105160  -0.023329
    20  H    0.000095  -0.003599  -0.000999   0.001828   0.033055   0.030396
    21  H   -0.000248   0.005291   0.000727  -0.000195  -0.027054  -0.002166
    22  H    0.001189  -0.006712   0.000100   0.000365   0.015423  -0.003981
    23  C   -0.009516  -0.047841   0.008631   0.000647  -0.050971  -0.001873
    24  H    0.000444   0.004049  -0.000736  -0.000029   0.003411   0.000036
    25  H    0.003119  -0.003403   0.000285  -0.000414  -0.000593   0.000139
    26  H   -0.002045   0.012882   0.000042   0.001598  -0.002442   0.000366
              13         14         15         16         17         18
     1  H   -0.000029   0.000195   0.000118   0.000001   0.000017  -0.000220
     2  C   -0.005001  -0.008080   0.001824  -0.000622   0.000415   0.001308
     3  H   -0.000036  -0.000029  -0.000021   0.000001   0.000004  -0.000022
     4  C   -0.015527   0.012753   0.005277  -0.000150   0.001661  -0.010761
     5  C    0.013994   0.029226   0.015077   0.000182  -0.000208  -0.005085
     6  O   -0.003355   0.002226   0.003437  -0.000172   0.000432  -0.003967
     7  O   -0.020493  -0.009660  -0.002105   0.000506  -0.001533   0.004938
     8  C   -0.092126  -0.006840   0.002500   0.063497  -0.017815  -0.049006
     9  H    0.019179  -0.004806   0.003916  -0.005320  -0.000556   0.010445
    10  H   -0.016604  -0.013836  -0.011214   0.004436  -0.000858  -0.000929
    11  C    0.472240   0.040730  -0.243198  -0.071189   0.029535   0.081349
    12  H   -0.062167  -0.144756   0.006552   0.047217  -0.002645  -0.005352
    13  H    0.578854  -0.066944   0.007950  -0.008123  -0.001498   0.003647
    14  N   -0.066944   6.912981   0.289946  -0.101145  -0.054428  -0.068007
    15  C    0.007950   0.289946   5.188252   0.405338   0.396879   0.398629
    16  H   -0.008123  -0.101145   0.405338   0.654760  -0.045714  -0.056467
    17  H   -0.001498  -0.054428   0.396879  -0.045714   0.563269  -0.019218
    18  H    0.003647  -0.068007   0.398629  -0.056467  -0.019218   0.598433
    19  C    0.011853   0.283306  -0.133027  -0.033274   0.012197   0.008086
    20  H   -0.007567  -0.108820  -0.007838   0.031264  -0.000405   0.000819
    21  H    0.007416  -0.045930   0.007063  -0.000859  -0.001433  -0.003469
    22  H    0.002317  -0.064485   0.002063  -0.003099   0.005064  -0.000416
    23  C    0.001025   0.008321   0.003916   0.000247   0.000038  -0.001709
    24  H   -0.000390   0.001857   0.000216   0.000014  -0.000003   0.000313
    25  H   -0.000356   0.000053   0.000216  -0.000012   0.000019  -0.000058
    26  H    0.001304   0.001048  -0.001209   0.000277  -0.000287  -0.000277
              19         20         21         22         23         24
     1  H    0.000115  -0.000003   0.000025   0.000003   0.021741  -0.002281
     2  C    0.000375  -0.000143   0.000085   0.000107  -0.627187  -0.015479
     3  H   -0.000015  -0.000002   0.000005  -0.000004  -0.048697   0.000871
     4  C    0.006524  -0.000367  -0.000213   0.000509   0.295502  -0.010886
     5  C    0.016089  -0.000825   0.002129  -0.000176  -0.463827   0.004662
     6  O    0.000854  -0.000054   0.000122   0.000008  -0.017420  -0.001724
     7  O   -0.010463   0.000095  -0.000248   0.001189  -0.009516   0.000444
     8  C   -0.099086  -0.003599   0.005291  -0.006712  -0.047841   0.004049
     9  H    0.006594  -0.000999   0.000727   0.000100   0.008631  -0.000736
    10  H   -0.007742   0.001828  -0.000195   0.000365   0.000647  -0.000029
    11  C   -0.105160   0.033055  -0.027054   0.015423  -0.050971   0.003411
    12  H   -0.023329   0.030396  -0.002166  -0.003981  -0.001873   0.000036
    13  H    0.011853  -0.007567   0.007416   0.002317   0.001025  -0.000390
    14  N    0.283306  -0.108820  -0.045930  -0.064485   0.008321   0.001857
    15  C   -0.133027  -0.007838   0.007063   0.002063   0.003916   0.000216
    16  H   -0.033274   0.031264  -0.000859  -0.003099   0.000247   0.000014
    17  H    0.012197  -0.000405  -0.001433   0.005064   0.000038  -0.000003
    18  H    0.008086   0.000819  -0.003469  -0.000416  -0.001709   0.000313
    19  C    5.188036   0.364425   0.420768   0.418727   0.003604   0.000649
    20  H    0.364425   0.662908  -0.057849  -0.055743  -0.000528   0.000184
    21  H    0.420768  -0.057849   0.574870  -0.013582   0.003568  -0.000520
    22  H    0.418727  -0.055743  -0.013582   0.576042  -0.000177   0.000032
    23  C    0.003604  -0.000528   0.003568  -0.000177   6.346978   0.361006
    24  H    0.000649   0.000184  -0.000520   0.000032   0.361006   0.576796
    25  H    0.000236  -0.000029   0.000097   0.000018   0.389125  -0.027185
    26  H   -0.004048   0.000290  -0.000236  -0.000301   0.403430  -0.059345
              25         26
     1  H    0.001584  -0.002228
     2  C    0.039068  -0.040336
     3  H    0.004674   0.001695
     4  C   -0.068801  -0.019201
     5  C   -0.026452   0.010010
     6  O    0.002199  -0.003220
     7  O    0.003119  -0.002045
     8  C   -0.003403   0.012882
     9  H    0.000285   0.000042
    10  H   -0.000414   0.001598
    11  C   -0.000593  -0.002442
    12  H    0.000139   0.000366
    13  H   -0.000356   0.001304
    14  N    0.000053   0.001048
    15  C    0.000216  -0.001209
    16  H   -0.000012   0.000277
    17  H    0.000019  -0.000287
    18  H   -0.000058  -0.000277
    19  C    0.000236  -0.004048
    20  H   -0.000029   0.000290
    21  H    0.000097  -0.000236
    22  H    0.000018  -0.000301
    23  C    0.389125   0.403430
    24  H   -0.027185  -0.059345
    25  H    0.562906  -0.024526
    26  H   -0.024526   0.553792
 Mulliken charges:
               1
     1  H    0.204537
     2  C   -0.675858
     3  H    0.134695
     4  C    0.975127
     5  C   -0.454455
     6  O   -0.273372
     7  O    0.008490
     8  C   -0.194802
     9  H    0.192985
    10  H    0.189150
    11  C   -0.505365
    12  H    0.112826
    13  H    0.180438
    14  N    0.115125
    15  C   -0.340557
    16  H    0.118406
    17  H    0.137070
    18  H    0.116994
    19  C   -0.326294
    20  H    0.119505
    21  H    0.131584
    22  H    0.126709
    23  C   -0.578032
    24  H    0.164037
    25  H    0.148089
    26  H    0.172968
 Sum of Mulliken charges =  -0.00000
 Mulliken charges with hydrogens summed into heavy atoms:
               1
     2  C   -0.336626
     4  C    0.975127
     5  C   -0.454455
     6  O   -0.273372
     7  O    0.008490
     8  C    0.187333
    11  C   -0.212101
    14  N    0.115125
    15  C    0.031912
    19  C    0.051505
    23  C   -0.092937
 DipInt: DoE/N= T F RetVal/Mat= T F Init=T NMatP=  1 IDeriv=0 Min/MaxMlt=  0  4
 Entering OneElI...
 OneElI was handed 25769474560 working-precision words.
 Multipole integrals L=0 to 4 MinM= 0 MaxM= 0.
 Requested accuracy = 0.1000D-12
 ShPair: Thresh= 1.00D-13 NBox=     0 BxSize= 0.00D+00 RnKept= 1.70D+01
         NSMCal=                10011 NSMKep=                8961
 PrmmSu-InSpLW:  IPartL=    0 NPrtUS=    1 NPrtUL=    1 DoSpLW=F IThBeg=    0 IThEnd=    0 NThAct=    1.
 PrsmSu:  NPrtUS=   1 ThrOK=F IAlg=1 NPAlg=1 LenDen=           0 ISkipM=0 DoSpLW=F IThBeg=    0 IThEnd=    0.
 Prism:   IPart=     0 DynPar=F LinDyn=F Incr=          89.
 PRISM was handed 25768927157 working-precision words and  8961 shell-pairs
 IPart=  0 NShTot=        8961 NBatch=          91 AvBLen=        98.5
 PrsmSu-ThDecC:  IPartSL=    0    0 NPrtUSL=    1    1 IThBeg=    0 IThEnd=    0 CPU=   -1 GPU=   -1 NThAct=    1.
 PrSmSu:  NxtVal=             90.
 Electronic moments (au):
        -86.00000000          0.63849189          0.67539486         -0.21388113
      -1931.55736545       -448.33225439       -193.87442756         -4.63375444
         -0.40369262          0.31890365        -76.19570781       -272.62089918
        -54.88975261        352.08045543      -1085.97714861      -1010.24400160
       -427.66038641         86.71701200         34.70701486         86.78945443
     -75205.54897327      -6023.99625706      -1570.86196863      -1364.47470718
        662.46876013        212.66005287         65.87232997       -565.47458388
         60.87952876      -9500.23141048      -4743.77919700       -831.18829758
        689.63826842        -29.16083934        473.40662749
 Electronic spatial extent (au):  <R**2>=           2573.7640
 DipInt: DoE/N= F T RetVal/Mat= T F Init=T NMatP=  1 IDeriv=0 Min/MaxMlt=  0  4
 Nuclear    moments (au):
         86.00000000          0.00000000          0.00000000         -0.00000000
       1884.46115507        395.13705392        143.49701568         -0.00000000
          0.00094891          0.00043751         49.42597553        285.55384296
         50.65629901       -339.34321276       1108.45323588       1024.19871349
        434.92980152        -90.96930337        -37.35122668        -87.96602431
      68355.19441156       4366.78753130        864.62997014       1345.39769448
       -711.34573729       -247.39832593        -60.66493862        608.96971296
        -58.56823564       8048.01094201       3425.24648249        458.50872678
       -671.03291007         29.58135299       -450.48148543
 Total      moments (au):
         -0.00000000          0.63849189          0.67539486         -0.21388113
        -47.09621039        -53.19520047        -50.37741189         -4.63375444
         -0.40274370          0.31934116        -26.76973228         12.93294378
         -4.23345360         12.73724266         22.47608727         13.95471189
          7.26941512         -4.25229137         -2.64421182         -1.17656988
      -6850.35456171      -1657.20872576       -706.23199850        -19.07701270
        -48.87697717        -34.73827306          5.20739136         43.49512908
          2.31129312      -1452.22046848      -1318.53271451       -372.67957080
         18.60535835          0.42051365         22.92514205
 Traceless Quadrup. (au):
          3.12673053         -2.97225955         -0.15447097         -4.63375444
         -0.40274370          0.31934116
 Charge=             -0.0000 electrons
 Dipole moment (field-independent basis, Debye):
    X=              1.6229    Y=              1.7167    Z=             -0.5436  Tot=              2.4241
 Quadrupole moment (field-independent basis, Debye-Ang):
   XX=            -63.3460   YY=            -71.5494   ZZ=            -67.7593
   XY=             -6.2326   XZ=             -0.5417   YZ=              0.4295
 Traceless Quadrupole moment (field-independent basis, Debye-Ang):
   XX=              4.2056   YY=             -3.9978   ZZ=             -0.2078
   XY=             -6.2326   XZ=             -0.5417   YZ=              0.4295
 Octapole moment (field-independent basis, Debye-Ang**2):
  XXX=            -19.0537  YYY=              9.2052  ZZZ=             -3.0132  XYY=              9.0659
  XXY=             15.9976  XXZ=              9.9324  XZZ=              5.1741  YZZ=             -3.0266
  YYZ=             -1.8820  XYZ=             -0.8374
 Hexadecapole moment (field-independent basis, Debye-Ang**3):
 XXXX=          -2580.1720 YYYY=           -624.1843 ZZZZ=           -266.0008 XXXY=             -7.1853
 XXXZ=            -18.4094 YYYX=            -13.0841 YYYZ=              1.9614 ZZZX=             16.3824
 ZZZY=              0.8705 XXYY=           -546.9759 XXZZ=           -496.6226 YYZZ=           -140.3690
 XXYZ=              7.0077 YYXZ=              0.1584 ZZXY=              8.6347
 N-N= 6.338460747953D+02 E-N=-2.478495185152D+03  KE= 5.170102986849D+02
 Entering OneElI...
 OneElI was handed 25769545553 working-precision words.
 Calculate electrostatic properties
    NBasis =   347  MinDer = 0  MaxDer = 0
    NGrid  =    26  NMatD  =   1
 Requested accuracy = 0.1000D-12
 ShPair: Thresh= 1.00D-13 NBox=     0 BxSize= 0.00D+00 RnKept= 1.70D+01
         NSMCal=                10011 NSMKep=                8392
 PrmmSu-InSpLW:  IPartL=    0 NPrtUS=   48 NPrtUL=    1 DoSpLW=F IThBeg=    0 IThEnd=   47 NThAct=   48.
 PrsmSu:  NPrtUS=  48 ThrOK=T IAlg=1 NPAlg=1 LenDen=           0 ISkipM=0 DoSpLW=F IThBeg=    0 IThEnd=   47.
 Prism:   IPart=     0 DynPar=F LinDyn=F Incr=          45.
 PRISM was handed   536698881 working-precision words and  8392 shell-pairs
 PRISM was handed   536698881 working-precision words and  8392 shell-pairs
 PRISM was handed   536698881 working-precision words and  8392 shell-pairs
 PRISM was handed   536698881 working-precision words and  8392 shell-pairs
 PRISM was handed   536698881 working-precision words and  8392 shell-pairs
 PRISM was handed   536698881 working-precision words and  8392 shell-pairs
 PRISM was handed   536698881 working-precision words and  8392 shell-pairs
 PRISM was handed   536698881 working-precision words and  8392 shell-pairs
 PRISM was handed   536698881 working-precision words and  8392 shell-pairs
 PRISM was handed   536698881 working-precision words and  8392 shell-pairs
 PRISM was handed   536698881 working-precision words and  8392 shell-pairs
 PRISM was handed   536698881 working-precision words and  8392 shell-pairs
 PRISM was handed   536698881 working-precision words and  8392 shell-pairs
 PRISM was handed   536698881 working-precision words and  8392 shell-pairs
 PRISM was handed   536698881 working-precision words and  8392 shell-pairs
 PRISM was handed   536698881 working-precision words and  8392 shell-pairs
 PRISM was handed   536698881 working-precision words and  8392 shell-pairs
 PRISM was handed   536698881 working-precision words and  8392 shell-pairs
 PRISM was handed   536698881 working-precision words and  8392 shell-pairs
 PRISM was handed   536698881 working-precision words and  8392 shell-pairs
 PRISM was handed   536698881 working-precision words and  8392 shell-pairs
 PRISM was handed   536698881 working-precision words and  8392 shell-pairs
 PRISM was handed   536698881 working-precision words and  8392 shell-pairs
 PRISM was handed   536698881 working-precision words and  8392 shell-pairs
 PRISM was handed   536698881 working-precision words and  8392 shell-pairs
 PRISM was handed   536698881 working-precision words and  8392 shell-pairs
 PRISM was handed   536698881 working-precision words and  8392 shell-pairs
 PRISM was handed   536698881 working-precision words and  8392 shell-pairs
 PRISM was handed   536698881 working-precision words and  8392 shell-pairs
 PRISM was handed   536698881 working-precision words and  8392 shell-pairs
 PRISM was handed   536698881 working-precision words and  8392 shell-pairs
 PRISM was handed   536698881 working-precision words and  8392 shell-pairs
 PRISM was handed   536698881 working-precision words and  8392 shell-pairs
 PRISM was handed   536698881 working-precision words and  8392 shell-pairs
 PRISM was handed   536698881 working-precision words and  8392 shell-pairs
 PRISM was handed   536698881 working-precision words and  8392 shell-pairs
 PRISM was handed   536698881 working-precision words and  8392 shell-pairs
 PRISM was handed   536698881 working-precision words and  8392 shell-pairs
 PRISM was handed   536698881 working-precision words and  8392 shell-pairs
 PRISM was handed   536698881 working-precision words and  8392 shell-pairs
 PRISM was handed   536698881 working-precision words and  8392 shell-pairs
 PRISM was handed   536698881 working-precision words and  8392 shell-pairs
 PRISM was handed   536698881 working-precision words and  8392 shell-pairs
 PRISM was handed   536698881 working-precision words and  8392 shell-pairs
 PRISM was handed   536698881 working-precision words and  8392 shell-pairs
 PRISM was handed   536698881 working-precision words and  8392 shell-pairs
 PRISM was handed   536698881 working-precision words and  8392 shell-pairs
 PRISM was handed   536698881 working-precision words and  8392 shell-pairs
 IPart= 31 NShTot=        4316 NBatch=         166 AvBLen=        26.0
 PrsmSu-ThDecC:  IPartSL=   31    0 NPrtUSL=   48    1 IThBeg=    0 IThEnd=   47 CPU=   -1 GPU=   -1 NThAct=   48.
 IPart= 41 NShTot=        4212 NBatch=         162 AvBLen=        26.0
 PrsmSu-ThDecC:  IPartSL=   41    0 NPrtUSL=   48    1 IThBeg=    0 IThEnd=   47 CPU=   -1 GPU=   -1 NThAct=   47.
 IPart= 38 NShTot=        4238 NBatch=         163 AvBLen=        26.0
 PrsmSu-ThDecC:  IPartSL=   38    0 NPrtUSL=   48    1 IThBeg=    0 IThEnd=   47 CPU=   -1 GPU=   -1 NThAct=   46.
 IPart= 47 NShTot=        4160 NBatch=         160 AvBLen=        26.0
 IPart= 17 NShTot=        4446 NBatch=         171 AvBLen=        26.0
 IPart= 44 NShTot=        4186 NBatch=         161 AvBLen=        26.0
 PrsmSu-ThDecC:  IPartSL=   47    0 NPrtUSL=   48    1 IThBeg=    0 IThEnd=   47 CPU=   -1 GPU=   -1 NThAct=   45.
 IPart= 26 NShTot=        4342 NBatch=         167 AvBLen=        26.0
 IPart= 23 NShTot=        4394 NBatch=         169 AvBLen=        26.0
 PrsmSu-ThDecC:  IPartSL=   17    0 NPrtUSL=   48    1 IThBeg=    0 IThEnd=   47 CPU=   -1 GPU=   -1 NThAct=   44.
 PrsmSu-ThDecC:  IPartSL=   44    0 NPrtUSL=   48    1 IThBeg=    0 IThEnd=   47 CPU=   -1 GPU=   -1 NThAct=   43.
 IPart= 32 NShTot=        4316 NBatch=         166 AvBLen=        26.0
 IPart= 21 NShTot=        4420 NBatch=         170 AvBLen=        26.0
 IPart= 29 NShTot=        4342 NBatch=         167 AvBLen=        26.0
 IPart= 39 NShTot=        4238 NBatch=         163 AvBLen=        26.0
 IPart= 19 NShTot=        4446 NBatch=         171 AvBLen=        26.0
 IPart=  7 NShTot=        5044 NBatch=         194 AvBLen=        26.0
 IPart=  9 NShTot=        4966 NBatch=         191 AvBLen=        26.0
 IPart=  8 NShTot=        4992 NBatch=         192 AvBLen=        26.0
 IPart= 15 NShTot=        4550 NBatch=         175 AvBLen=        26.0
 IPart= 11 NShTot=        4784 NBatch=         184 AvBLen=        26.0
 PrsmSu-ThDecC:  IPartSL=   23    0 NPrtUSL=   48    1 IThBeg=    0 IThEnd=   47 CPU=   -1 GPU=   -1 NThAct=   42.
 IPart= 20 NShTot=        4446 NBatch=         171 AvBLen=        26.0
 PrsmSu-ThDecC:  IPartSL=   15    0 NPrtUSL=   48    1 IThBeg=    0 IThEnd=   47 CPU=   -1 GPU=   -1 NThAct=   41.
 PrsmSu-ThDecC:  IPartSL=   39    0 NPrtUSL=   48    1 IThBeg=    0 IThEnd=   47 CPU=   -1 GPU=   -1 NThAct=   40.
 PrsmSu-ThDecC:  IPartSL=    9    0 NPrtUSL=   48    1 IThBeg=    0 IThEnd=   47 CPU=   -1 GPU=   -1 NThAct=   39.
 PrsmSu-ThDecC:  IPartSL=   20    0 NPrtUSL=   48    1 IThBeg=    0 IThEnd=   47 CPU=   -1 GPU=   -1 NThAct=   38.
 PrsmSu-ThDecC:  IPartSL=   32    0 NPrtUSL=   48    1 IThBeg=    0 IThEnd=   47 CPU=   -1 GPU=   -1 NThAct=   37.
 PrsmSu-ThDecC:  IPartSL=   26    0 NPrtUSL=   48    1 IThBeg=    0 IThEnd=   47 CPU=   -1 GPU=   -1 NThAct=   36.
 PrsmSu-ThDecC:  IPartSL=   11    0 NPrtUSL=   48    1 IThBeg=    0 IThEnd=   47 CPU=   -1 GPU=   -1 NThAct=   35.
 PrsmSu-ThDecC:  IPartSL=   21    0 NPrtUSL=   48    1 IThBeg=    0 IThEnd=   47 CPU=   -1 GPU=   -1 NThAct=   34.
 PrsmSu-ThDecC:  IPartSL=    8    0 NPrtUSL=   48    1 IThBeg=    0 IThEnd=   47 CPU=   -1 GPU=   -1 NThAct=   33.
 PrsmSu-ThDecC:  IPartSL=   29    0 NPrtUSL=   48    1 IThBeg=    0 IThEnd=   47 CPU=   -1 GPU=   -1 NThAct=   32.
 PrsmSu-ThDecC:  IPartSL=    7    0 NPrtUSL=   48    1 IThBeg=    0 IThEnd=   47 CPU=   -1 GPU=   -1 NThAct=   31.
 PrsmSu-ThDecC:  IPartSL=   19    0 NPrtUSL=   48    1 IThBeg=    0 IThEnd=   47 CPU=   -1 GPU=   -1 NThAct=   30.
 IPart=  2 NShTot=        5408 NBatch=         208 AvBLen=        26.0
 PrsmSu-ThDecC:  IPartSL=    2    0 NPrtUSL=   48    1 IThBeg=    0 IThEnd=   47 CPU=   -1 GPU=   -1 NThAct=   29.
 IPart=  0 NShTot=        5538 NBatch=         213 AvBLen=        26.0
 PrsmSu-ThDecC:  IPartSL=    0    0 NPrtUSL=   48    1 IThBeg=    0 IThEnd=   47 CPU=   -1 GPU=   -1 NThAct=   28.
 IPart= 12 NShTot=        4680 NBatch=         180 AvBLen=        26.0
 PrsmSu-ThDecC:  IPartSL=   12    0 NPrtUSL=   48    1 IThBeg=    0 IThEnd=   47 CPU=   -1 GPU=   -1 NThAct=   27.
 IPart= 22 NShTot=        4394 NBatch=         169 AvBLen=        26.0
 PrsmSu-ThDecC:  IPartSL=   22    0 NPrtUSL=   48    1 IThBeg=    0 IThEnd=   47 CPU=   -1 GPU=   -1 NThAct=   26.
 IPart= 33 NShTot=        4316 NBatch=         166 AvBLen=        26.0
 PrsmSu-ThDecC:  IPartSL=   33    0 NPrtUSL=   48    1 IThBeg=    0 IThEnd=   47 CPU=   -1 GPU=   -1 NThAct=   25.
 IPart= 27 NShTot=        4342 NBatch=         167 AvBLen=        26.0
 PrsmSu-ThDecC:  IPartSL=   27    0 NPrtUSL=   48    1 IThBeg=    0 IThEnd=   47 CPU=   -1 GPU=   -1 NThAct=   24.
 IPart= 13 NShTot=        4654 NBatch=         179 AvBLen=        26.0
 PrsmSu-ThDecC:  IPartSL=   13    0 NPrtUSL=   48    1 IThBeg=    0 IThEnd=   47 CPU=   -1 GPU=   -1 NThAct=   23.
 IPart=  1 NShTot=        5460 NBatch=         210 AvBLen=        26.0
 PrsmSu-ThDecC:  IPartSL=    1    0 NPrtUSL=   48    1 IThBeg=    0 IThEnd=   47 CPU=   -1 GPU=   -1 NThAct=   22.
 IPart= 34 NShTot=        4264 NBatch=         164 AvBLen=        26.0
 PrsmSu-ThDecC:  IPartSL=   34    0 NPrtUSL=   48    1 IThBeg=    0 IThEnd=   47 CPU=   -1 GPU=   -1 NThAct=   21.
 IPart= 10 NShTot=        4914 NBatch=         189 AvBLen=        26.0
 PrsmSu-ThDecC:  IPartSL=   10    0 NPrtUSL=   48    1 IThBeg=    0 IThEnd=   47 CPU=   -1 GPU=   -1 NThAct=   20.
 IPart= 37 NShTot=        4238 NBatch=         163 AvBLen=        26.0
 PrsmSu-ThDecC:  IPartSL=   37    0 NPrtUSL=   48    1 IThBeg=    0 IThEnd=   47 CPU=   -1 GPU=   -1 NThAct=   19.
 IPart=  5 NShTot=        5148 NBatch=         198 AvBLen=        26.0
 PrsmSu-ThDecC:  IPartSL=    5    0 NPrtUSL=   48    1 IThBeg=    0 IThEnd=   47 CPU=   -1 GPU=   -1 NThAct=   18.
 IPart= 43 NShTot=        4186 NBatch=         161 AvBLen=        26.0
 IPart= 42 NShTot=        4186 NBatch=         161 AvBLen=        26.0
 PrsmSu-ThDecC:  IPartSL=   43    0 NPrtUSL=   48    1 IThBeg=    0 IThEnd=   47 CPU=   -1 GPU=   -1 NThAct=   17.
 PrsmSu-ThDecC:  IPartSL=   42    0 NPrtUSL=   48    1 IThBeg=    0 IThEnd=   47 CPU=   -1 GPU=   -1 NThAct=   16.
 IPart= 35 NShTot=        4238 NBatch=         163 AvBLen=        26.0
 PrsmSu-ThDecC:  IPartSL=   35    0 NPrtUSL=   48    1 IThBeg=    0 IThEnd=   47 CPU=   -1 GPU=   -1 NThAct=   15.
 IPart= 25 NShTot=        4342 NBatch=         167 AvBLen=        26.0
 PrsmSu-ThDecC:  IPartSL=   25    0 NPrtUSL=   48    1 IThBeg=    0 IThEnd=   47 CPU=   -1 GPU=   -1 NThAct=   14.
 IPart= 28 NShTot=        4342 NBatch=         167 AvBLen=        26.0
 PrsmSu-ThDecC:  IPartSL=   28    0 NPrtUSL=   48    1 IThBeg=    0 IThEnd=   47 CPU=   -1 GPU=   -1 NThAct=   13.
 IPart= 46 NShTot=        4160 NBatch=         160 AvBLen=        26.0
 PrsmSu-ThDecC:  IPartSL=   46    0 NPrtUSL=   48    1 IThBeg=    0 IThEnd=   47 CPU=   -1 GPU=   -1 NThAct=   12.
 IPart= 24 NShTot=        4394 NBatch=         169 AvBLen=        26.0
 PrsmSu-ThDecC:  IPartSL=   24    0 NPrtUSL=   48    1 IThBeg=    0 IThEnd=   47 CPU=   -1 GPU=   -1 NThAct=   11.
 IPart= 45 NShTot=        4186 NBatch=         161 AvBLen=        26.0
 PrsmSu-ThDecC:  IPartSL=   45    0 NPrtUSL=   48    1 IThBeg=    0 IThEnd=   47 CPU=   -1 GPU=   -1 NThAct=   10.
 IPart= 30 NShTot=        4342 NBatch=         167 AvBLen=        26.0
 IPart= 36 NShTot=        4238 NBatch=         163 AvBLen=        26.0
 PrsmSu-ThDecC:  IPartSL=   30    0 NPrtUSL=   48    1 IThBeg=    0 IThEnd=   47 CPU=   -1 GPU=   -1 NThAct=    9.
 PrsmSu-ThDecC:  IPartSL=   36    0 NPrtUSL=   48    1 IThBeg=    0 IThEnd=   47 CPU=   -1 GPU=   -1 NThAct=    8.
 IPart= 16 NShTot=        4498 NBatch=         173 AvBLen=        26.0
 PrsmSu-ThDecC:  IPartSL=   16    0 NPrtUSL=   48    1 IThBeg=    0 IThEnd=   47 CPU=   -1 GPU=   -1 NThAct=    7.
 IPart= 14 NShTot=        4654 NBatch=         179 AvBLen=        26.0
 PrsmSu-ThDecC:  IPartSL=   14    0 NPrtUSL=   48    1 IThBeg=    0 IThEnd=   47 CPU=   -1 GPU=   -1 NThAct=    6.
 IPart= 40 NShTot=        4212 NBatch=         162 AvBLen=        26.0
 PrsmSu-ThDecC:  IPartSL=   40    0 NPrtUSL=   48    1 IThBeg=    0 IThEnd=   47 CPU=   -1 GPU=   -1 NThAct=    5.
 IPart=  6 NShTot=        5096 NBatch=         196 AvBLen=        26.0
 PrsmSu-ThDecC:  IPartSL=    6    0 NPrtUSL=   48    1 IThBeg=    0 IThEnd=   47 CPU=   -1 GPU=   -1 NThAct=    4.
 IPart=  3 NShTot=        5278 NBatch=         203 AvBLen=        26.0
 PrsmSu-ThDecC:  IPartSL=    3    0 NPrtUSL=   48    1 IThBeg=    0 IThEnd=   47 CPU=   -1 GPU=   -1 NThAct=    3.
 IPart=  4 NShTot=        5200 NBatch=         200 AvBLen=        26.0
 IPart= 18 NShTot=        4446 NBatch=         171 AvBLen=        26.0
 PrsmSu-ThDecC:  IPartSL=    4    0 NPrtUSL=   48    1 IThBeg=    0 IThEnd=   47 CPU=   -1 GPU=   -1 NThAct=    2.
 PrsmSu-ThDecC:  IPartSL=   18    0 NPrtUSL=   48    1 IThBeg=    0 IThEnd=   47 CPU=   -1 GPU=   -1 NThAct=    1.
 PrSmSu:  NxtVal=           2161.
 --------------------------------------------------------
       Center         ----      EFG at Nuclei      ----
                      3XX-RR        3YY-RR        3ZZ-RR
 --------------------------------------------------------
     1   Atom        0.123279     -0.276229      0.152950
     2   Atom        0.163140      0.166416     -0.329556
     3   Atom       -0.080455     -0.072800      0.153256
     4   Atom        0.173367      0.047981     -0.221347
     5   Atom       -0.003902      0.342457     -0.338554
     6   Atom        1.266976     -0.612585     -0.654391
     7   Atom       -1.340890      0.413387      0.927503
     8   Atom       -0.171154     -0.077452      0.248606
     9   Atom        0.143375     -0.018781     -0.124595
    10   Atom        0.115791      0.020985     -0.136776
    11   Atom        0.040919      0.056985     -0.097904
    12   Atom       -0.045295     -0.035946      0.081241
    13   Atom        0.140259     -0.066448     -0.073811
    14   Atom        0.503993     -0.238931     -0.265063
    15   Atom        0.038343     -0.015087     -0.023256
    16   Atom       -0.118078      0.039963      0.078115
    17   Atom        0.119436      0.029432     -0.148867
    18   Atom       -0.063184     -0.050666      0.113850
    19   Atom       -0.044557     -0.058115      0.102671
    20   Atom       -0.138599      0.078829      0.059771
    21   Atom        0.063187     -0.050725     -0.012462
    22   Atom        0.116729      0.046052     -0.162781
    23   Atom        0.055126     -0.090478      0.035352
    24   Atom        0.117033      0.136836     -0.253870
    25   Atom       -0.108254     -0.031944      0.140198
    26   Atom       -0.119008      0.121237     -0.002228
 --------------------------------------------------------
                        XY            XZ            YZ
 --------------------------------------------------------
     1   Atom       -0.114807      0.019252      0.062568
     2   Atom        0.032315     -0.161407     -0.045005
     3   Atom        0.230659      0.057413     -0.052007
     4   Atom        0.084417     -0.133502     -0.046396
     5   Atom       -0.140440     -0.095977     -0.013520
     6   Atom       -0.473351     -0.618340      0.126226
     7   Atom        0.494418      0.687455     -0.044833
     8   Atom        0.344294      0.086248     -0.090268
     9   Atom        0.023994     -0.011840      0.215233
    10   Atom       -0.045533     -0.083394     -0.196676
    11   Atom       -0.062627     -0.047202     -0.122567
    12   Atom        0.175000      0.096071     -0.104050
    13   Atom        0.039845     -0.055522      0.213382
    14   Atom       -0.676083     -0.668606      0.384095
    15   Atom        0.108326     -0.080645      0.130544
    16   Atom        0.166430      0.120847     -0.069774
    17   Atom       -0.065581     -0.111538     -0.181412
    18   Atom       -0.209791      0.081512      0.093018
    19   Atom       -0.146827      0.070946      0.051296
    20   Atom        0.118793      0.157955     -0.067891
    21   Atom        0.123157     -0.123036      0.185765
    22   Atom       -0.069837     -0.106478     -0.175096
    23   Atom       -0.024062      0.001778      0.016388
    24   Atom       -0.020694      0.128143      0.060166
    25   Atom        0.214008      0.070710     -0.055376
    26   Atom       -0.083263     -0.208569     -0.059343
 --------------------------------------------------------


 ---------------------------------------------------------------------------------
              Nuclear Quadrupole Coupling Constant in Principal Axis System
 ---------------------------------------------------------------------------------

       Atom             a.u.   MegaHertz   Gauss  10(-4) cm-1        Axes

              Baa    -0.6534     3.138     1.120     1.047  0.5904  0.2529  0.7664
    14 N(14)  Bbb    -0.6335     3.043     1.086     1.015  0.2355  0.8544 -0.4633
              Bcc     1.2870    -6.181    -2.206    -2.062  0.7720 -0.4540 -0.4449
 

 ---------------------------------------------------------------------------------

 No NMR shielding tensors so no spin-rotation constants.
 Leave Link  601 at Thu Apr 21 16:33:22 2022, MaxMem= 25769803776 cpu:              12.1 elap:               0.4
 Calling FoFJK, ICntrl=      2127 FMM=F ISym2X=0 I1Cent= 0 IOpClX= 0 NMat=1 NMatS=1 NMatT=0.
 ***** Axes restored to original set *****
 -------------------------------------------------------------------
 Center     Atomic                   Forces (Hartrees/Bohr)
 Number     Number              X              Y              Z
 -------------------------------------------------------------------
      1        1          -0.000221753    0.000089488    0.000069911
      2        6          -0.000477735    0.000107744    0.000143640
      3        1          -0.000250667    0.000002210    0.000073000
      4        6          -0.000323874   -0.000120714    0.000065331
      5        6          -0.000326458    0.000287208    0.000036954
      6        8          -0.000165683    0.000457691    0.000056994
      7        8          -0.000154229    0.000177711   -0.000148316
      8        6          -0.000147051    0.000394818   -0.000299697
      9        1          -0.000068830    0.000276333    0.000002561
     10        1           0.000007214    0.000204782   -0.000222327
     11        6           0.000170251    0.000113729   -0.000376208
     12        1           0.000086258    0.000169352   -0.000267076
     13        1           0.000043753   -0.000065841   -0.000305418
     14        7           0.000378835   -0.000156878    0.000112086
     15        6           0.000363101    0.000167305    0.000481577
     16        1           0.000216723    0.000186187    0.000183640
     17        1           0.000096210    0.000050800    0.000284598
     18        1           0.000114132    0.000181904    0.000320861
     19        6           0.000340100   -0.000442369   -0.000024152
     20        1           0.000245618   -0.000187984   -0.000085256
     21        1           0.000115185   -0.000288761   -0.000076862
     22        1           0.000135869   -0.000249839    0.000057231
     23        6          -0.000125858   -0.000469100   -0.000007985
     24        1          -0.000023762   -0.000304775   -0.000142207
     25        1          -0.000033455   -0.000247928   -0.000007972
     26        1           0.000006104   -0.000333072    0.000075094
 -------------------------------------------------------------------
 Cartesian Forces:  Max     0.000481577 RMS     0.000223976

 GradGradGradGradGradGradGradGradGradGradGradGradGradGradGradGradGradGrad
 Berny optimization.
 FormGI is forming the generalized inverse of G from B-inverse, IUseBI=4.
 Internal  Forces:  Max     0.002188417 RMS     0.000643508
 Search for a local minimum.
 Step number   1 out of a maximum of  124
 All quantities printed in internal units (Hartrees-Bohrs-Radians)
 Mixed Optimization -- En-DIIS/RFO-DIIS
 Second derivative matrix not updated -- first step.
 ITU=  0
     Eigenvalues ---    0.00516   0.00692   0.00763   0.00902   0.00935
     Eigenvalues ---    0.00939   0.01125   0.01274   0.01361   0.02352
     Eigenvalues ---    0.02649   0.02938   0.02938   0.04101   0.05212
     Eigenvalues ---    0.05605   0.05739   0.07154   0.07154   0.07197
     Eigenvalues ---    0.07226   0.07509   0.07557   0.09627   0.11309
     Eigenvalues ---    0.13039   0.13662   0.16000   0.16000   0.16000
     Eigenvalues ---    0.16000   0.16000   0.16000   0.16000   0.16000
     Eigenvalues ---    0.16000   0.16000   0.16000   0.17470   0.17773
     Eigenvalues ---    0.21941   0.21983   0.25000   0.25000   0.25000
     Eigenvalues ---    0.25000   0.25000   0.30472   0.31802   0.32358
     Eigenvalues ---    0.32784   0.32923   0.32947   0.34391   0.34416
     Eigenvalues ---    0.34443   0.34469   0.34508   0.34537   0.34554
     Eigenvalues ---    0.34641   0.34665   0.34743   0.35505   0.35629
     Eigenvalues ---    0.37005   0.37312   0.37349   0.39197   0.55005
     Eigenvalues ---    0.58155   0.99678
 RFO step:  Lambda=-2.15408445D-04 EMin= 5.15791906D-03
 Linear search not attempted -- first point.
 Iteration  1 RMS(Cart)=  0.03699910 RMS(Int)=  0.00017813
 Iteration  2 RMS(Cart)=  0.00043920 RMS(Int)=  0.00000648
 Iteration  3 RMS(Cart)=  0.00000005 RMS(Int)=  0.00000648
 Variable       Old X    -DE/DX   Delta X   Delta X   Delta X     New X
                                 (Linear)    (Quad)   (Total)
    R1        2.04666  -0.00015   0.00000  -0.00042  -0.00042   2.04624
    R2        2.04862  -0.00019   0.00000  -0.00053  -0.00053   2.04810
    R3        2.52431  -0.00101   0.00000  -0.00174  -0.00174   2.52258
    R4        2.83494  -0.00194   0.00000  -0.00599  -0.00599   2.82896
    R5        2.84508  -0.00124   0.00000  -0.00390  -0.00390   2.84118
    R6        2.28768  -0.00048   0.00000  -0.00048  -0.00048   2.28720
    R7        2.55128  -0.00164   0.00000  -0.00298  -0.00298   2.54829
    R8        2.72659  -0.00179   0.00000  -0.00456  -0.00456   2.72203
    R9        2.06095  -0.00017   0.00000  -0.00049  -0.00049   2.06046
   R10        2.06676  -0.00029   0.00000  -0.00084  -0.00084   2.06592
   R11        2.87033  -0.00219   0.00000  -0.00718  -0.00718   2.86315
   R12        2.09433  -0.00027   0.00000  -0.00082  -0.00082   2.09351
   R13        2.06589  -0.00025   0.00000  -0.00074  -0.00074   2.06515
   R14        2.75838  -0.00208   0.00000  -0.00561  -0.00561   2.75277
   R15        2.75378  -0.00153   0.00000  -0.00409  -0.00409   2.74969
   R16        2.75323  -0.00142   0.00000  -0.00379  -0.00379   2.74944
   R17        2.09187  -0.00020   0.00000  -0.00060  -0.00060   2.09127
   R18        2.06405  -0.00023   0.00000  -0.00068  -0.00068   2.06338
   R19        2.06222  -0.00014   0.00000  -0.00040  -0.00040   2.06183
   R20        2.09145  -0.00017   0.00000  -0.00053  -0.00053   2.09092
   R21        2.06434  -0.00019   0.00000  -0.00055  -0.00055   2.06379
   R22        2.06480  -0.00021   0.00000  -0.00060  -0.00060   2.06421
   R23        2.06634  -0.00017   0.00000  -0.00050  -0.00050   2.06585
   R24        2.06262  -0.00018   0.00000  -0.00052  -0.00052   2.06210
   R25        2.06547  -0.00013   0.00000  -0.00037  -0.00037   2.06510
    A1        2.06189   0.00026   0.00000   0.00163   0.00163   2.06351
    A2        2.10534  -0.00015   0.00000  -0.00093  -0.00093   2.10442
    A3        2.11595  -0.00011   0.00000  -0.00070  -0.00070   2.11526
    A4        2.04526   0.00054   0.00000   0.00217   0.00216   2.04742
    A5        2.16031   0.00074   0.00000   0.00297   0.00297   2.16329
    A6        2.07761  -0.00129   0.00000  -0.00514  -0.00514   2.07247
    A7        2.18991   0.00087   0.00000   0.00349   0.00348   2.19339
    A8        1.94367  -0.00158   0.00000  -0.00632  -0.00633   1.93734
    A9        2.14961   0.00071   0.00000   0.00282   0.00281   2.15242
   A10        2.03471  -0.00081   0.00000  -0.00323  -0.00323   2.03148
   A11        1.90292   0.00047   0.00000  -0.00142  -0.00146   1.90146
   A12        1.89764   0.00062   0.00000   0.00413   0.00415   1.90179
   A13        1.89123  -0.00170   0.00000  -0.00881  -0.00882   1.88241
   A14        1.87640  -0.00008   0.00000   0.00292   0.00292   1.87932
   A15        1.97173   0.00015   0.00000  -0.00132  -0.00135   1.97038
   A16        1.92273   0.00058   0.00000   0.00482   0.00483   1.92755
   A17        1.87861   0.00060   0.00000   0.00230   0.00229   1.88089
   A18        1.88548   0.00069   0.00000   0.00307   0.00306   1.88854
   A19        1.99299  -0.00211   0.00000  -0.01071  -0.01072   1.98227
   A20        1.86299  -0.00017   0.00000   0.00336   0.00335   1.86634
   A21        1.94891   0.00065   0.00000   0.00223   0.00223   1.95113
   A22        1.88966   0.00046   0.00000   0.00068   0.00068   1.89035
   A23        1.96950  -0.00066   0.00000  -0.00581  -0.00582   1.96369
   A24        1.95016  -0.00003   0.00000  -0.00223  -0.00224   1.94791
   A25        1.94022   0.00049   0.00000   0.00068   0.00066   1.94088
   A26        1.96550  -0.00029   0.00000  -0.00197  -0.00197   1.96353
   A27        1.91167  -0.00010   0.00000  -0.00029  -0.00029   1.91138
   A28        1.93396  -0.00041   0.00000  -0.00271  -0.00271   1.93124
   A29        1.88755   0.00025   0.00000   0.00185   0.00185   1.88940
   A30        1.88655   0.00028   0.00000   0.00111   0.00110   1.88765
   A31        1.87586   0.00032   0.00000   0.00233   0.00233   1.87819
   A32        1.97335  -0.00031   0.00000  -0.00212  -0.00212   1.97123
   A33        1.91826  -0.00025   0.00000  -0.00153  -0.00154   1.91672
   A34        1.91309  -0.00015   0.00000  -0.00076  -0.00076   1.91233
   A35        1.88894   0.00025   0.00000   0.00127   0.00126   1.89021
   A36        1.88277   0.00023   0.00000   0.00139   0.00138   1.88416
   A37        1.88507   0.00026   0.00000   0.00202   0.00202   1.88709
   A38        1.94009  -0.00030   0.00000  -0.00211  -0.00212   1.93797
   A39        1.92762  -0.00006   0.00000   0.00009   0.00009   1.92771
   A40        1.93950  -0.00033   0.00000  -0.00234  -0.00234   1.93717
   A41        1.89487   0.00027   0.00000   0.00216   0.00216   1.89703
   A42        1.86072   0.00017   0.00000   0.00017   0.00016   1.86089
   A43        1.89906   0.00029   0.00000   0.00222   0.00222   1.90128
    D1       -0.00175  -0.00001   0.00000  -0.00077  -0.00077  -0.00252
    D2       -3.14081   0.00001   0.00000   0.00087   0.00087  -3.13994
    D3        3.13873  -0.00001   0.00000  -0.00085  -0.00085   3.13789
    D4       -0.00032   0.00001   0.00000   0.00079   0.00079   0.00047
    D5       -0.01419  -0.00006   0.00000  -0.00591  -0.00592  -0.02010
    D6        3.12856   0.00004   0.00000   0.00197   0.00197   3.13053
    D7        3.12500  -0.00008   0.00000  -0.00745  -0.00745   3.11754
    D8       -0.01544   0.00002   0.00000   0.00043   0.00043  -0.01501
    D9       -2.08592  -0.00010   0.00000  -0.00125  -0.00124  -2.08717
   D10        0.01854  -0.00000   0.00000   0.00013   0.00013   0.01867
   D11        2.12788   0.00009   0.00000   0.00144   0.00144   2.12932
   D12        1.05825  -0.00008   0.00000   0.00040   0.00041   1.05865
   D13       -3.12048   0.00002   0.00000   0.00178   0.00178  -3.11869
   D14       -1.01113   0.00011   0.00000   0.00309   0.00309  -1.00804
   D15        3.12573  -0.00019   0.00000  -0.00988  -0.00988   3.11585
   D16       -0.01474  -0.00009   0.00000  -0.00221  -0.00221  -0.01695
   D17       -0.83841  -0.00026   0.00000   0.00534   0.00535  -0.83306
   D18        1.20248   0.00026   0.00000   0.01035   0.01035   1.21283
   D19       -2.99091   0.00033   0.00000   0.01342   0.01340  -2.97751
   D20       -2.89425  -0.00048   0.00000  -0.02267  -0.02266  -2.91691
   D21       -0.88852  -0.00002   0.00000  -0.01604  -0.01603  -0.90455
   D22        1.21471  -0.00031   0.00000  -0.01987  -0.01986   1.19485
   D23        1.27852   0.00001   0.00000  -0.01392  -0.01393   1.26459
   D24       -2.99894   0.00046   0.00000  -0.00730  -0.00730  -3.00623
   D25       -0.89570   0.00018   0.00000  -0.01112  -0.01113  -0.90683
   D26       -0.82025  -0.00041   0.00000  -0.02015  -0.02016  -0.84041
   D27        1.18548   0.00005   0.00000  -0.01353  -0.01353   1.17195
   D28       -2.99448  -0.00024   0.00000  -0.01736  -0.01736  -3.01184
   D29        1.28483  -0.00023   0.00000  -0.01206  -0.01207   1.27276
   D30       -2.79681  -0.00012   0.00000  -0.01761  -0.01761  -2.81442
   D31       -0.85144   0.00006   0.00000  -0.00878  -0.00878  -0.86022
   D32        1.35010   0.00016   0.00000  -0.01432  -0.01432   1.33579
   D33       -2.89745  -0.00039   0.00000  -0.01459  -0.01459  -2.91205
[...]
 **** Fit       0.003700
 **** Fit       0.003228
 **** Fit       0.002992
 **** Fit       0.002855
 **** Fit       0.005047
 **** Fit       0.005051
 **** Fit       0.005000
 **** Fit       0.004905
 **** Fit       0.004796
 **** Fit       0.004712
 **** Fit       0.004702
 **** Fit       0.004815
 **** Fit       0.005077
 **** Fit       0.005439
 **** Fit       0.005728
 **** Fit       0.005704
 **** Fit       0.005271
 **** Fit       0.004594
 **** Fit       0.003946
 **** Fit       0.003483
 **** Fit       0.003200
 **** Fit       0.003025
 **** Fit       0.002894
 **** Fit       0.004829
 **** Fit       0.004744
 **** Fit       0.004642
 **** Fit       0.004544
 **** Fit       0.004473
 **** Fit       0.004449
 **** Fit       0.004475
 **** Fit       0.004528
 **** Fit       0.004540
 **** Fit       0.004434
 **** Fit       0.004189
 **** Fit       0.003869
 **** Fit       0.003567
 **** Fit       0.003337
 **** Fit       0.003170
 **** Fit       0.003038
 **** Fit       0.004329
 **** Fit       0.004241
 **** Fit       0.004162
 **** Fit       0.004084
 **** Fit       0.003991
 **** Fit       0.003867
 **** Fit       0.003713
 **** Fit       0.003548
 **** Fit       0.003399
 **** Fit       0.003271
 **** Fit       0.003157
 **** Fit       0.003042
 **** Fit       0.004139
 **** Fit       0.004028
 **** Fit       0.003912
 **** Fit       0.003794
 **** Fit       0.003674
 **** Fit       0.003558
 **** Fit       0.003450
 **** Fit       0.003351
 **** Fit       0.003256
 **** Fit       0.003155
 **** Fit       0.003861
 **** Fit       0.003745
 **** Fit       0.003635
 **** Fit       0.003534
 **** Fit       0.003440
 **** Fit       0.003350
 **** Fit      -0.000091
 **** Fit      -0.000154
 **** Fit      -0.000214
 **** Fit       0.000345
 **** Fit       0.000297
 **** Fit       0.000226
 **** Fit       0.000131
 **** Fit       0.000027
 **** Fit      -0.000060
 **** Fit      -0.000106
 **** Fit       0.000754
 **** Fit       0.000740
 **** Fit       0.000700
 **** Fit       0.000616
 **** Fit       0.000482
 **** Fit       0.000321
 **** Fit       0.000170
 **** Fit       0.000070
 **** Fit       0.000044
 **** Fit       0.001154
 **** Fit       0.001177
 **** Fit       0.001191
 **** Fit       0.001169
 **** Fit       0.001077
 **** Fit       0.000902
 **** Fit       0.000670
 **** Fit       0.000439
 **** Fit       0.000270
 **** Fit       0.000199
 **** Fit       0.000224
 **** Fit       0.001574
 **** Fit       0.001626
 **** Fit       0.001673
 **** Fit       0.001673
 **** Fit       0.001578
 **** Fit       0.001364
 **** Fit       0.001059
 **** Fit       0.000743
 **** Fit       0.000499
 **** Fit       0.000375
 **** Fit       0.000371
 **** Fit       0.001943
 **** Fit       0.001999
 **** Fit       0.002073
 **** Fit       0.002144
 **** Fit       0.002161
 **** Fit       0.002062
 **** Fit       0.001815
 **** Fit       0.001452
 **** Fit       0.001064
 **** Fit       0.000754
 **** Fit       0.000579
 **** Fit       0.000542
 **** Fit       0.002351
 **** Fit       0.002412
 **** Fit       0.002491
 **** Fit       0.002564
 **** Fit       0.002579
 **** Fit       0.002472
 **** Fit       0.002206
 **** Fit       0.001813
 **** Fit       0.001389
 **** Fit       0.001040
 **** Fit       0.000825
 **** Fit       0.000750
 **** Fit       0.002753
 **** Fit       0.002807
 **** Fit       0.002869
 **** Fit       0.002920
 **** Fit       0.002913
 **** Fit       0.002792
 **** Fit       0.002527
 **** Fit       0.002146
 **** Fit       0.001735
 **** Fit       0.001382
 **** Fit       0.001140
 **** Fit       0.001019
 **** Fit       0.001003
 **** Fit       0.001070
 **** Fit       0.001190
 **** Fit       0.003185
 **** Fit       0.003217
 **** Fit       0.003230
 **** Fit       0.003191
 **** Fit       0.003063
 **** Fit       0.002827
 **** Fit       0.002506
 **** Fit       0.002158
 **** Fit       0.001839
 **** Fit       0.001582
 **** Fit       0.001398
 **** Fit       0.001298
 **** Fit       0.001286
 **** Fit       0.001353
 **** Fit       0.001470
 **** Fit       0.003548
 **** Fit       0.003550
 **** Fit       0.003526
 **** Fit       0.003464
 **** Fit       0.003349
 **** Fit       0.003179
 **** Fit       0.002970
 **** Fit       0.002743
 **** Fit       0.002503
 **** Fit       0.002241
 **** Fit       0.001968
 **** Fit       0.001730
 **** Fit       0.001585
 **** Fit       0.001557
 **** Fit       0.001623
 **** Fit       0.001731
 **** Fit       0.003893
 **** Fit       0.003871
 **** Fit       0.003823
 **** Fit       0.003758
 **** Fit       0.003686
 **** Fit       0.003625
 **** Fit       0.003587
 **** Fit       0.003555
 **** Fit       0.003459
 **** Fit       0.003217
 **** Fit       0.002820
 **** Fit       0.002371
 **** Fit       0.002015
 **** Fit       0.001831
 **** Fit       0.001807
 **** Fit       0.001872
 **** Fit       0.004199
 **** Fit       0.004202
 **** Fit       0.004166
 **** Fit       0.004108
 **** Fit       0.004058
 **** Fit       0.004054
 **** Fit       0.004138
 **** Fit       0.004327
 **** Fit       0.004567
 **** Fit       0.004697
 **** Fit       0.004519
 **** Fit       0.003973
 **** Fit       0.003237
 **** Fit       0.002588
 **** Fit       0.002188
 **** Fit       0.002034
 **** Fit       0.002031
 **** Fit       0.002080
 **** Fit       0.004398
 **** Fit       0.004448
 **** Fit       0.004446
 **** Fit       0.004404
 **** Fit       0.004346
 **** Fit       0.004321
 **** Fit       0.004391
 **** Fit       0.004622
 **** Fit       0.005047
 **** Fit       0.005589
 **** Fit       0.005992
 **** Fit       0.005915
 **** Fit       0.005228
 **** Fit       0.004189
 **** Fit       0.003226
 **** Fit       0.002592
 **** Fit       0.002292
 **** Fit       0.002206
 **** Fit       0.002208
 **** Fit       0.004564
 **** Fit       0.004611
 **** Fit       0.004605
 **** Fit       0.004558
 **** Fit       0.004503
 **** Fit       0.004497
 **** Fit       0.004618
 **** Fit       0.004948
 **** Fit       0.005533
 **** Fit       0.006286
 **** Fit       0.006892
 **** Fit       0.006909
 **** Fit       0.006148
 **** Fit       0.004920
 **** Fit       0.003750
 **** Fit       0.002953
 **** Fit       0.002542
 **** Fit       0.002382
 **** Fit       0.002335
 **** Fit       0.004645
 **** Fit       0.004684
 **** Fit       0.004671
 **** Fit       0.004620
 **** Fit       0.004564
 **** Fit       0.004562
 **** Fit       0.004690
 **** Fit       0.005031
 **** Fit       0.005627
 **** Fit       0.006392
 **** Fit       0.007013
 **** Fit       0.007058
 **** Fit       0.006338
 **** Fit       0.005146
 **** Fit       0.003991
 **** Fit       0.003182
 **** Fit       0.002739
 **** Fit       0.002538
 **** Fit       0.002450
 **** Fit       0.004678
 **** Fit       0.004657
 **** Fit       0.004601
 **** Fit       0.004541
 **** Fit       0.004526
 **** Fit       0.004620
 **** Fit       0.004885
 **** Fit       0.005351
 **** Fit       0.005937
 **** Fit       0.006397
 **** Fit       0.006401
 **** Fit       0.005816
 **** Fit       0.004864
 **** Fit       0.003929
 **** Fit       0.003253
 **** Fit       0.002858
 **** Fit       0.002655
 **** Fit       0.002545
 **** Fit       0.004588
 **** Fit       0.004529
 **** Fit       0.004426
 **** Fit       0.004463
 **** Fit       0.004613
 **** Fit       0.004886
 **** Fit       0.005222
 **** Fit       0.005458
 **** Fit       0.005401
 **** Fit       0.004980
 **** Fit       0.004334
 **** Fit       0.003694
 **** Fit       0.003213
 **** Fit       0.002910
 **** Fit       0.002732
 **** Fit       0.002614
 **** Fit       0.004305
 **** Fit       0.004287
 **** Fit       0.004329
 **** Fit       0.004431
 **** Fit       0.004554
 **** Fit       0.004612
 **** Fit       0.004512
 **** Fit       0.004228
 **** Fit       0.003833
 **** Fit       0.003443
 **** Fit       0.003137
 **** Fit       0.002925
 **** Fit       0.002777
 **** Fit       0.004137
 **** Fit       0.004104
 **** Fit       0.004093
 **** Fit       0.004083
 **** Fit       0.004037
 **** Fit       0.003921
 **** Fit       0.003728
 **** Fit       0.003493
 **** Fit       0.003265
 **** Fit       0.003075
 **** Fit       0.002926
 **** Fit       0.002803
 **** Fit       0.003955
 **** Fit       0.003886
 **** Fit       0.003812
 **** Fit       0.003722
 **** Fit       0.003606
 **** Fit       0.003466
 **** Fit       0.003315
 **** Fit       0.003172
 **** Fit       0.003044
 **** Fit       0.002928
 **** Fit       0.003775
 **** Fit       0.003679
 **** Fit       0.003577
 **** Fit       0.003468
 **** Fit       0.003355
 **** Fit       0.003244
 **** Fit       0.003136
 **** Fit       0.000653
 **** Fit       0.000577
 **** Fit       0.000478
 **** Fit       0.000369
 **** Fit       0.000272
 **** Fit       0.001054
 **** Fit       0.001002
 **** Fit       0.000913
 **** Fit       0.000787
 **** Fit       0.000639
 **** Fit       0.000499
 **** Fit       0.000396
 **** Fit       0.001437
 **** Fit       0.001421
 **** Fit       0.001371
 **** Fit       0.001271
 **** Fit       0.001118
 **** Fit       0.000931
 **** Fit       0.000746
 **** Fit       0.000603
 **** Fit       0.000524
 **** Fit       0.001799
 **** Fit       0.001788
 **** Fit       0.001737
 **** Fit       0.001627
 **** Fit       0.001452
 **** Fit       0.001232
 **** Fit       0.001010
 **** Fit       0.000830
 **** Fit       0.000721
 **** Fit       0.002149
 **** Fit       0.002136
 **** Fit       0.002081
 **** Fit       0.001962
 **** Fit       0.001772
 **** Fit       0.001534
 **** Fit       0.001290
 **** Fit       0.001084
 **** Fit       0.000948
 **** Fit       0.002481
 **** Fit       0.002459
 **** Fit       0.002395
 **** Fit       0.002270
 **** Fit       0.002079
 **** Fit       0.001842
 **** Fit       0.001596
 **** Fit       0.001381
 **** Fit       0.001222
 **** Fit       0.001131
 **** Fit       0.001103
 **** Fit       0.002796
 **** Fit       0.002761
 **** Fit       0.002688
 **** Fit       0.002565
 **** Fit       0.002390
 **** Fit       0.002178
 **** Fit       0.001954
 **** Fit       0.001746
 **** Fit       0.001570
 **** Fit       0.001439
 **** Fit       0.001359
 **** Fit       0.001335
 **** Fit       0.001359
 **** Fit       0.003049
 **** Fit       0.002974
 **** Fit       0.002865
 **** Fit       0.002727
 **** Fit       0.002567
 **** Fit       0.002394
 **** Fit       0.002213
 **** Fit       0.002026
 **** Fit       0.001843
 **** Fit       0.001689
 **** Fit       0.001590
 **** Fit       0.001556
 **** Fit       0.001575
 **** Fit       0.003257
 **** Fit       0.003179
 **** Fit       0.003098
 **** Fit       0.003018
 **** Fit       0.002927
 **** Fit       0.002800
 **** Fit       0.002611
 **** Fit       0.002366
 **** Fit       0.002112
 **** Fit       0.001907
 **** Fit       0.001788
 **** Fit       0.001752
 **** Fit       0.001767
 **** Fit       0.003526
 **** Fit       0.003490
 **** Fit       0.003483
 **** Fit       0.003504
 **** Fit       0.003522
 **** Fit       0.003473
 **** Fit       0.003296
 **** Fit       0.002986
 **** Fit       0.002613
 **** Fit       0.002280
 **** Fit       0.002056
 **** Fit       0.001947
 **** Fit       0.001918
 **** Fit       0.003757
 **** Fit       0.003764
 **** Fit       0.003829
 **** Fit       0.003952
 **** Fit       0.004082
 **** Fit       0.004123
 **** Fit       0.003971
 **** Fit       0.003606
 **** Fit       0.003122
 **** Fit       0.002665
 **** Fit       0.002336
 **** Fit       0.002152
 **** Fit       0.002073
 **** Fit       0.003924
 **** Fit       0.003961
 **** Fit       0.004076
 **** Fit       0.004267
 **** Fit       0.004477
 **** Fit       0.004584
 **** Fit       0.004460
 **** Fit       0.004069
 **** Fit       0.003520
 **** Fit       0.002984
 **** Fit       0.002584
 **** Fit       0.002343
 **** Fit       0.002221
 **** Fit       0.004014
 **** Fit       0.004058
 **** Fit       0.004183
 **** Fit       0.004387
 **** Fit       0.004610
 **** Fit       0.004732
 **** Fit       0.004624
 **** Fit       0.004249
 **** Fit       0.003710
 **** Fit       0.003174
 **** Fit       0.002761
 **** Fit       0.002499
 **** Fit       0.002351
 **** Fit       0.004031
 **** Fit       0.004060
 **** Fit       0.004158
 **** Fit       0.004318
 **** Fit       0.004491
 **** Fit       0.004576
 **** Fit       0.004470
 **** Fit       0.004145
 **** Fit       0.003683
 **** Fit       0.003220
 **** Fit       0.002853
 **** Fit       0.002607
 **** Fit       0.002454
 **** Fit       0.003996
 **** Fit       0.003997
 **** Fit       0.004045
 **** Fit       0.004133
 **** Fit       0.004223
 **** Fit       0.004246
 **** Fit       0.004135
 **** Fit       0.003876
 **** Fit       0.003523
 **** Fit       0.003168
 **** Fit       0.002878
 **** Fit       0.002670
 **** Fit       0.002527
 **** Fit       0.003906
 **** Fit       0.003904
 **** Fit       0.003920
 **** Fit       0.003932
 **** Fit       0.003899
 **** Fit       0.003785
 **** Fit       0.003585
 **** Fit       0.003334
 **** Fit       0.003083
 **** Fit       0.002869
 **** Fit       0.002704
 **** Fit       0.003775
 **** Fit       0.003739
 **** Fit       0.003696
 **** Fit       0.003627
 **** Fit       0.003515
 **** Fit       0.003362
 **** Fit       0.003184
 **** Fit       0.003009
 **** Fit       0.002853
 **** Fit       0.002721
 **** Fit       0.003611
 **** Fit       0.003539
 **** Fit       0.003452
 **** Fit       0.003347
 **** Fit       0.003224
 **** Fit       0.003092
 **** Fit       0.002963
 **** Fit       0.003354
 **** Fit       0.003256
 **** Fit       0.003151
 **** Fit       0.001130
 **** Fit       0.001019
 **** Fit       0.001513
 **** Fit       0.001418
 **** Fit       0.001292
 **** Fit       0.001148
 **** Fit       0.001805
 **** Fit       0.001703
 **** Fit       0.001567
 **** Fit       0.001410
 **** Fit       0.001254
 **** Fit       0.002087
 **** Fit       0.001981
 **** Fit       0.001843
 **** Fit       0.001684
 **** Fit       0.002126
 **** Fit       0.001676
 **** Fit       0.001550
 **** Fit       0.001450
 **** Fit       0.002295
 **** Fit       0.002161
 **** Fit       0.002023
 **** Fit       0.001885
 **** Fit       0.001755
 **** Fit       0.001646
 **** Fit       0.001570
 **** Fit       0.002725
 **** Fit       0.002636
 **** Fit       0.002537
 **** Fit       0.002417
 **** Fit       0.002272
 **** Fit       0.002108
 **** Fit       0.001948
 **** Fit       0.001817
 **** Fit       0.001730
 **** Fit       0.003067
 **** Fit       0.003023
 **** Fit       0.002980
 **** Fit       0.002925
 **** Fit       0.002833
 **** Fit       0.002687
 **** Fit       0.002491
 **** Fit       0.002276
 **** Fit       0.002083
 **** Fit       0.001942
 **** Fit       0.001857
 **** Fit       0.003294
 **** Fit       0.003285
 **** Fit       0.003288
 **** Fit       0.003279
 **** Fit       0.003219
 **** Fit       0.003078
 **** Fit       0.002857
 **** Fit       0.002594
 **** Fit       0.002345
 **** Fit       0.002152
 **** Fit       0.002026
 **** Fit       0.003465
 **** Fit       0.003483
 **** Fit       0.003518
 **** Fit       0.003541
 **** Fit       0.003506
 **** Fit       0.003374
 **** Fit       0.003141
 **** Fit       0.002851
 **** Fit       0.002567
 **** Fit       0.002338
 **** Fit       0.002181
 **** Fit       0.003570
 **** Fit       0.003596
 **** Fit       0.003640
 **** Fit       0.003673
 **** Fit       0.003648
 **** Fit       0.003525
 **** Fit       0.003298
 **** Fit       0.003009
 **** Fit       0.002720
 **** Fit       0.002482
 **** Fit       0.002310
 **** Fit       0.003610
 **** Fit       0.003627
 **** Fit       0.003658
 **** Fit       0.003678
 **** Fit       0.003646
 **** Fit       0.003529
 **** Fit       0.003323
 **** Fit       0.003062
 **** Fit       0.002799
 **** Fit       0.002575
 **** Fit       0.002406
 **** Fit       0.003598
 **** Fit       0.003602
 **** Fit       0.003595
 **** Fit       0.003547
 **** Fit       0.003435
 **** Fit       0.003257
 **** Fit       0.003039
 **** Fit       0.002818
 **** Fit       0.002626
 **** Fit       0.002472
 **** Fit       0.003537
 **** Fit       0.003513
 **** Fit       0.003477
 **** Fit       0.003413
 **** Fit       0.003306
 **** Fit       0.003157
 **** Fit       0.002982
 **** Fit       0.002806
 **** Fit       0.002647
 **** Fit       0.003422
 **** Fit       0.003366
 **** Fit       0.003290
 **** Fit       0.003188
 **** Fit       0.003063
 **** Fit       0.002924
 **** Fit       0.002785
 **** Fit       0.003102
 **** Fit       0.002269
 **** Fit       0.002167
 **** Fit       0.002054
 **** Fit       0.001936
 **** Fit       0.001825
 **** Fit       0.002620
 **** Fit       0.002547
 **** Fit       0.002455
 **** Fit       0.002338
 **** Fit       0.002203
 **** Fit       0.002062
 **** Fit       0.001936
 **** Fit       0.002851
 **** Fit       0.002797
 **** Fit       0.002717
 **** Fit       0.002600
 **** Fit       0.002451
 **** Fit       0.002287
 **** Fit       0.002132
 **** Fit       0.003031
 **** Fit       0.002993
 **** Fit       0.002922
 **** Fit       0.002808
 **** Fit       0.002652
 **** Fit       0.002474
 **** Fit       0.002301
 **** Fit       0.002153
 **** Fit       0.003148
 **** Fit       0.003116
 **** Fit       0.003051
 **** Fit       0.002941
 **** Fit       0.002787
 **** Fit       0.002608
 **** Fit       0.002430
 **** Fit       0.002273
 **** Fit       0.003202
 **** Fit       0.003167
 **** Fit       0.003103
 **** Fit       0.002997
 **** Fit       0.002852
 **** Fit       0.002684
 **** Fit       0.002514
 **** Fit       0.003163
 **** Fit       0.003096
 **** Fit       0.002995
 **** Fit       0.002864
 **** Fit       0.002713
 **** Fit       0.002560
 **** Fit       0.003056
 **** Fit       0.002961
 **** Fit       0.002843
 -----------------------------------------------------------------
 Leave Link  602 at Thu Apr 21 16:47:58 2022, MaxMem=   104857600 cpu:               2.3 elap:               2.3
 (Enter /opt/ohpc/pub/libs/gaussian/g16-A.03/haswell/g16/l9999.exe)

 Test job not archived.
 1\1\GINC-CASCADEB020\SP\RB3LYP\6-311++G(d,p)\C8H15N1O2\MNG228\21-Apr-2
 022\0\\#P B3LYP/6-311++G(d,p) Geom=Allcheck SCF=Tight EmpiricalDispers
 ion=GD3BJ Pop=CHELPG SP IOp(6/33=2)\\DMAEMA geo opt\\0,1\H,0,2.8359158
 274,-0.3410604677,-2.0738037025\C,0,2.9853910517,0.4807719819,-1.38492
 47506\H,0,3.7726358289,1.1939964101,-1.5998801161\C,0,2.2148068119,0.6
 068561028,-0.3021556443\C,0,1.1495781466,-0.4243146408,-0.0939542781\O
 ,0,0.9027925563,-1.3350091293,-0.8507092262\O,0,0.5026496337,-0.220884
 1108,1.0761157798\C,0,-0.6563361492,-1.0305035719,1.3479548195\H,0,-0.
 6080369929,-1.9390322996,0.750081251\H,0,-0.5983169942,-1.2924301082,2
 .4053437173\C,0,-1.9213753534,-0.2236641289,1.0889308976\H,0,-2.784704
 2499,-0.832713981,1.4252606875\H,0,-1.891034873,0.6668565825,1.7223501
 078\N,0,-2.0619098437,0.2115037273,-0.2918443016\C,0,-2.3567715329,-0.
 8849039223,-1.2063151044\H,0,-3.3075975733,-1.3933740408,-0.9587350995
 \H,0,-2.4333586338,-0.493962822,-2.2227496271\H,0,-1.5477627823,-1.614
 2127127,-1.1977717758\C,0,-3.038114625,1.28388598,-0.4154475794\H,0,-4
 .0618416785,0.9684951288,-0.1387519709\H,0,-2.7539941674,2.1216126991,
 0.2255591475\H,0,-3.0625634487,1.6389114056,-1.4479994387\C,0,2.353241
 0077,1.7204174813,0.6986122385\H,0,2.5643618255,1.3292032638,1.6969651
 306\H,0,3.1596105529,2.396000368,0.4086778651\H,0,1.4250956555,2.29255
 48049,0.7748009729\\Version=ES64L-G16RevA.03\State=1-A\HF=-519.2548845
 \RMSD=2.433e-09\Dipole=-0.3101082,0.5171302,0.5212881\Quadrupole=2.176
 2068,-1.8532271,-0.3229797,2.64391,-0.824908,-2.053246\PG=C01 [X(C8H15
 N1O2)]\\@


 Any fool can criticize, condemn, and complain -- and most do.
 -- Dale Carnegie
 Job cpu time:       0 days  0 hours  5 minutes 51.7 seconds.
 Elapsed time:       0 days  0 hours  5 minutes 53.2 seconds.
 File lengths (MBytes):  RWF=    304 Int=      0 D2E=      0 Chk=     32 Scr=     32
 Normal termination of Gaussian 16 at Thu Apr 21 16:47:58 2022.
