 Entering Gaussian System, Link 0=g16
 Initial command:
 /opt/ohpc/pub/libs/gaussian/g16-A.03/haswell/g16/l1.exe "g16_scratch/Gau-137956.inp" -scrdir="g16_scratch/"
 Entering Link 1 = /opt/ohpc/pub/libs/gaussian/g16-A.03/haswell/g16/l1.exe PID=    137958.
  
 Copyright (c) 1988,1990,1992,1993,1995,1998,2003,2009,2016,
            Gaussian, Inc.  All Rights Reserved.
  
 This is part of the Gaussian(R) 16 program.  It is based on
 the Gaussian(R) 09 system (copyright 2009, Gaussian, Inc.),
 the Gaussian(R) 03 system (copyright 2003, Gaussian, Inc.),
 the Gaussian(R) 98 system (copyright 1998, Gaussian, Inc.),
 the Gaussian(R) 94 system (copyright 1995, Gaussian, Inc.),
 the Gaussian 92(TM) system (copyright 1992, Gaussian, Inc.),
 the Gaussian 90(TM) system (copyright 1990, Gaussian, Inc.),
 the Gaussian 88(TM) system (copyright 1988, Gaussian, Inc.),
 the Gaussian 86(TM) system (copyright 1986, Carnegie Mellon
 University), and the Gaussian 82(TM) system (copyright 1983,
 Carnegie Mellon University). Gaussian is a federally registered
 trademark of Gaussian, Inc.
  
 This software contains proprietary and confidential information,
 including trade secrets, belonging to Gaussian, Inc.
  
 This software is provided under written license and may be
 used, copied, transmitted, or stored only in accord with that
 written license.
  
 The following legend is applicable only to US Government
 contracts under FAR:
  
                    RESTRICTED RIGHTS LEGEND
  
 Use, reproduction and disclosure by the US Government is
 subject to restrictions as set forth in subparagraphs (a)
 and (c) of the Commercial Computer Software - Restricted
 Rights clause in FAR 52.227-19.
  
 Gaussian, Inc.
 340 Quinnipiac St., Bldg. 40, Wallingford CT 06492
  
  
 ---------------------------------------------------------------
 Warning -- This program may not be used in any manner that
 competes with the business of Gaussian, Inc. or will provide
 assistance to any competitor of Gaussian, Inc.  The licensee
 of this program is prohibited from giving any competitor of
 Gaussian, Inc. access to this program.  By using this program,
 the user acknowledges that Gaussian, Inc. is engaged in the
 business of creating and licensing software in the field of
 computational chemistry and represents and warrants to the
 licensee that it is not a competitor of Gaussian, Inc. and that
 it will not use this program in any manner prohibited above.
 ---------------------------------------------------------------
  

 Cite this work as:
 Gaussian 16, Revision A.03,
 M. J. Frisch, G. W. Trucks, H. B. Schlegel, G. E. Scuseria, 
 M. A. Robb, J. R. Cheeseman, G. Scalmani, V. Barone, 
 G. A. Petersson, H. Nakatsuji, X. Li, M. Caricato, A. V. Marenich, 
 J. Bloino, B. G. Janesko, R. Gomperts, B. Mennucci, H. P. Hratchian, 
 J. V. Ortiz, A. F. Izmaylov, J. L. Sonnenberg, D. Williams-Young, 
 F. Ding, F. Lipparini, F. Egidi, J. Goings, B. Peng, A. Petrone, 
 T. Henderson, D. Ranasinghe, V. G. Zakrzewski, J. Gao, N. Rega, 
 G. Zheng, W. Liang, M. Hada, M. Ehara, K. Toyota, R. Fukuda, 
 J. Hasegawa, M. Ishida, T. Nakajima, Y. Honda, O. Kitao, H. Nakai, 
 T. Vreven, K. Throssell, J. A. Montgomery, Jr., J. E. Peralta, 
 F. Ogliaro, M. J. Bearpark, J. J. Heyd, E. N. Brothers, K. N. Kudin, 
 V. N. Staroverov, T. A. Keith, R. Kobayashi, J. Normand, 
 K. Raghavachari, A. P. Rendell, J. C. Burant, S. S. Iyengar, 
 J. Tomasi, M. Cossi, J. M. Millam, M. Klene, C. Adamo, R. Cammi, 
 J. W. Ochterski, R. L. Martin, K. Morokuma, O. Farkas, 
 J. B. Foresman, and D. J. Fox, Gaussian, Inc., Wallingford CT, 2016.
 
 ******************************************
 Gaussian 16:  ES64L-G16RevA.03 25-Dec-2016
                21-Apr-2022 
 ******************************************
 %Mem=192GB
 %NProcShared=48
 Will use up to   48 processors via shared memory.
 %Chk=DMAEMA-3.chk
 ---------------------------------------------------------------------
 #n B3LYP/6-311++G(d,p) Opt freq EmpiricalDispersion=GD3BJ IOp(6/33=2)
 ---------------------------------------------------------------------
 1/18=20,19=15,26=3,38=1/1,3;
 2/9=110,12=2,17=6,18=5,40=1/2;
 3/5=4,6=6,7=1111,11=2,25=1,30=1,71=1,74=-5,124=41/1,2,3;
 4//1;
 5/5=2,38=5/2;
 6/7=2,8=2,9=2,10=2,28=1,33=2/1;
 7//1,2,3,16;
 1/18=20,19=15,26=3/3(2);
 2/9=110/2;
 99//99;
 2/9=110/2;
 3/5=4,6=6,7=1111,11=2,25=1,30=1,71=1,74=-5,124=41/1,2,3;
 4/5=5,16=3,69=1/1;
 5/5=2,38=5/2;
 7//1,2,3,16;
 1/18=20,19=15,26=3/3(-5);
 2/9=110/2;
 6/7=2,8=2,9=2,10=2,19=2,28=1,33=2/1;
 99/9=1/99;
 --------------
 DMAEMA geo opt
 --------------
 Symbolic Z-matrix:
 Charge =  0 Multiplicity = 1
 H                     1.4521   -2.9974   -1.3044 
 C                     2.4408   -2.5974   -1.0977 
 H                     3.1426   -2.5828   -1.927 
 C                     2.7964   -2.1373    0.1129 
 C                     1.8623   -2.1327    1.2765 
 O                     2.2447   -2.0616    2.4332 
 O                     0.5591   -2.2054    0.8881 
 C                    -0.1173   -3.3578    1.4176 
 H                     0.138    -4.2363    0.8138 
 H                     0.2239   -3.5058    2.4474 
 C                    -1.6382   -3.1351    1.3902 
 H                    -1.9766   -3.0582    0.3483 
 H                    -2.1083   -4.045     1.7884 
 N                    -2.0891   -1.9725    2.1823 
 C                    -1.4993   -0.7169    1.7119 
 H                    -1.7252   -0.5254    0.657 
 H                    -1.8687    0.1281    2.3038 
 H                    -0.4131   -0.7124    1.844 
 C                    -3.5504   -1.8676    2.1482 
 H                    -3.9291   -1.7075    1.1318 
 H                    -4.0159   -2.7719    2.5544 
 H                    -3.8898   -1.034     2.7744 
 C                     4.1739   -1.5887    0.3527 
 H                     4.9306   -2.3569    0.1589 
 H                     4.3647   -0.7367   -0.3088 
 H                     4.3236   -1.2395    1.3785 
 

 GradGradGradGradGradGradGradGradGradGradGradGradGradGradGradGradGradGrad
 Berny optimization.
 Initialization pass.
                           ----------------------------
                           !    Initial Parameters    !
                           ! (Angstroms and Degrees)  !
 --------------------------                            --------------------------
 ! Name  Definition              Value          Derivative Info.                !
 --------------------------------------------------------------------------------
 ! R1    R(1,2)                  1.0864         estimate D2E/DX2                !
 ! R2    R(2,3)                  1.0865         estimate D2E/DX2                !
 ! R3    R(2,4)                  1.343          estimate D2E/DX2                !
 ! R4    R(4,5)                  1.4922         estimate D2E/DX2                !
 ! R5    R(4,23)                 1.502          estimate D2E/DX2                !
 ! R6    R(5,6)                  1.2203         estimate D2E/DX2                !
 ! R7    R(5,7)                  1.3618         estimate D2E/DX2                !
 ! R8    R(7,8)                  1.4373         estimate D2E/DX2                !
 ! R9    R(8,9)                  1.0961         estimate D2E/DX2                !
 ! R10   R(8,10)                 1.0949         estimate D2E/DX2                !
 ! R11   R(8,11)                 1.5374         estimate D2E/DX2                !
 ! R12   R(11,12)                1.0982         estimate D2E/DX2                !
 ! R13   R(11,13)                1.0989         estimate D2E/DX2                !
 ! R14   R(11,14)                1.4773         estimate D2E/DX2                !
 ! R15   R(14,15)                1.4648         estimate D2E/DX2                !
 ! R16   R(14,19)                1.4655         estimate D2E/DX2                !
 ! R17   R(15,16)                1.0957         estimate D2E/DX2                !
 ! R18   R(15,17)                1.0958         estimate D2E/DX2                !
 ! R19   R(15,18)                1.0942         estimate D2E/DX2                !
 ! R20   R(19,20)                1.0964         estimate D2E/DX2                !
 ! R21   R(19,21)                1.0952         estimate D2E/DX2                !
 ! R22   R(19,22)                1.0965         estimate D2E/DX2                !
 ! R23   R(23,24)                1.0956         estimate D2E/DX2                !
 ! R24   R(23,25)                1.0954         estimate D2E/DX2                !
 ! R25   R(23,26)                1.0939         estimate D2E/DX2                !
 ! A1    A(1,2,3)              116.5878         estimate D2E/DX2                !
 ! A2    A(1,2,4)              122.5889         estimate D2E/DX2                !
 ! A3    A(3,2,4)              120.8232         estimate D2E/DX2                !
 ! A4    A(2,4,5)              122.5631         estimate D2E/DX2                !
 ! A5    A(2,4,23)             120.7888         estimate D2E/DX2                !
 ! A6    A(5,4,23)             116.6472         estimate D2E/DX2                !
 ! A7    A(4,5,6)              122.899          estimate D2E/DX2                !
 ! A8    A(4,5,7)              112.1169         estimate D2E/DX2                !
 ! A9    A(6,5,7)              124.9822         estimate D2E/DX2                !
 ! A10   A(5,7,8)              112.8352         estimate D2E/DX2                !
 ! A11   A(7,8,9)              109.2714         estimate D2E/DX2                !
 ! A12   A(7,8,10)             107.9516         estimate D2E/DX2                !
 ! A13   A(7,8,11)             110.0505         estimate D2E/DX2                !
 ! A14   A(9,8,10)             109.705          estimate D2E/DX2                !
 ! A15   A(9,8,11)             109.6756         estimate D2E/DX2                !
 ! A16   A(10,8,11)            110.1594         estimate D2E/DX2                !
 ! A17   A(8,11,12)            109.3842         estimate D2E/DX2                !
 ! A18   A(8,11,13)            107.2668         estimate D2E/DX2                !
 ! A19   A(8,11,14)            113.9788         estimate D2E/DX2                !
 ! A20   A(12,11,13)           105.6622         estimate D2E/DX2                !
 ! A21   A(12,11,14)           111.0725         estimate D2E/DX2                !
 ! A22   A(13,11,14)           109.0734         estimate D2E/DX2                !
 ! A23   A(11,14,15)           112.3027         estimate D2E/DX2                !
 ! A24   A(11,14,19)           110.3781         estimate D2E/DX2                !
 ! A25   A(15,14,19)           109.4311         estimate D2E/DX2                !
 ! A26   A(14,15,16)           112.085          estimate D2E/DX2                !
 ! A27   A(14,15,17)           110.5967         estimate D2E/DX2                !
 ! A28   A(14,15,18)           111.3739         estimate D2E/DX2                !
 ! A29   A(16,15,17)           108.407          estimate D2E/DX2                !
 ! A30   A(16,15,18)           108.6736         estimate D2E/DX2                !
 ! A31   A(17,15,18)           105.4412         estimate D2E/DX2                !
 ! A32   A(14,19,20)           112.1136         estimate D2E/DX2                !
 ! A33   A(14,19,21)           110.8608         estimate D2E/DX2                !
 ! A34   A(14,19,22)           110.4749         estimate D2E/DX2                !
 ! A35   A(20,19,21)           108.5172         estimate D2E/DX2                !
 ! A36   A(20,19,22)           108.15           estimate D2E/DX2                !
 ! A37   A(21,19,22)           106.5208         estimate D2E/DX2                !
 ! A38   A(4,23,24)            110.4318         estimate D2E/DX2                !
 ! A39   A(4,23,25)            110.3298         estimate D2E/DX2                !
 ! A40   A(4,23,26)            113.0678         estimate D2E/DX2                !
 ! A41   A(24,23,25)           108.5572         estimate D2E/DX2                !
 ! A42   A(24,23,26)           107.1693         estimate D2E/DX2                !
 ! A43   A(25,23,26)           107.1076         estimate D2E/DX2                !
 ! D1    D(1,2,4,5)             -0.1797         estimate D2E/DX2                !
 ! D2    D(1,2,4,23)          -179.8088         estimate D2E/DX2                !
 ! D3    D(3,2,4,5)            179.6907         estimate D2E/DX2                !
 ! D4    D(3,2,4,23)             0.0616         estimate D2E/DX2                !
 ! D5    D(2,4,5,6)            160.0034         estimate D2E/DX2                !
 ! D6    D(2,4,5,7)            -20.4856         estimate D2E/DX2                !
 ! D7    D(23,4,5,6)           -20.3531         estimate D2E/DX2                !
 ! D8    D(23,4,5,7)           159.1579         estimate D2E/DX2                !
 ! D9    D(2,4,23,24)          -60.5757         estimate D2E/DX2                !
 ! D10   D(2,4,23,25)           59.4376         estimate D2E/DX2                !
 ! D11   D(2,4,23,26)          179.3554         estimate D2E/DX2                !
 ! D12   D(5,4,23,24)          119.774          estimate D2E/DX2                !
 ! D13   D(5,4,23,25)         -120.2127         estimate D2E/DX2                !
 ! D14   D(5,4,23,26)           -0.2948         estimate D2E/DX2                !
 ! D15   D(4,5,7,8)            120.4959         estimate D2E/DX2                !
 ! D16   D(6,5,7,8)            -60.0052         estimate D2E/DX2                !
 ! D17   D(5,7,8,9)            -79.9995         estimate D2E/DX2                !
 ! D18   D(5,7,8,10)            39.2588         estimate D2E/DX2                !
 ! D19   D(5,7,8,11)           159.5164         estimate D2E/DX2                !
 ! D20   D(7,8,11,12)           65.0044         estimate D2E/DX2                !
 ! D21   D(7,8,11,13)          179.1501         estimate D2E/DX2                !
 ! D22   D(7,8,11,14)          -60.0009         estimate D2E/DX2                !
 ! D23   D(9,8,11,12)          -55.2357         estimate D2E/DX2                !
 ! D24   D(9,8,11,13)           58.9099         estimate D2E/DX2                !
 ! D25   D(9,8,11,14)          179.7589         estimate D2E/DX2                !
 ! D26   D(10,8,11,12)        -176.0813         estimate D2E/DX2                !
 ! D27   D(10,8,11,13)         -61.9357         estimate D2E/DX2                !
 ! D28   D(10,8,11,14)          58.9133         estimate D2E/DX2                !
 ! D29   D(8,11,14,15)          60.0002         estimate D2E/DX2                !
 ! D30   D(8,11,14,19)        -177.5918         estimate D2E/DX2                !
 ! D31   D(12,11,14,15)        -64.1018         estimate D2E/DX2                !
 ! D32   D(12,11,14,19)         58.3063         estimate D2E/DX2                !
 ! D33   D(13,11,14,15)        179.8361         estimate D2E/DX2                !
 ! D34   D(13,11,14,19)        -57.7558         estimate D2E/DX2                !
 ! D35   D(11,14,15,16)         57.6736         estimate D2E/DX2                !
 ! D36   D(11,14,15,17)        178.7729         estimate D2E/DX2                !
 ! D37   D(11,14,15,18)        -64.3217         estimate D2E/DX2                !
 ! D38   D(19,14,15,16)        -65.2691         estimate D2E/DX2                !
 ! D39   D(19,14,15,17)         55.8302         estimate D2E/DX2                !
 ! D40   D(19,14,15,18)        172.7356         estimate D2E/DX2                !
 ! D41   D(11,14,19,20)        -61.9937         estimate D2E/DX2                !
 ! D42   D(11,14,19,21)         59.4526         estimate D2E/DX2                !
 ! D43   D(11,14,19,22)        177.3003         estimate D2E/DX2                !
 ! D44   D(15,14,19,20)         62.0846         estimate D2E/DX2                !
 ! D45   D(15,14,19,21)       -176.4691         estimate D2E/DX2                !
 ! D46   D(15,14,19,22)        -58.6214         estimate D2E/DX2                !
 --------------------------------------------------------------------------------
 Trust Radius=3.00D-01 FncErr=1.00D-07 GrdErr=1.00D-06 EigMax=2.50D+02 EigMin=1.00D-04
 Number of steps in this run=    124 maximum allowed number of steps=    156.
 GradGradGradGradGradGradGradGradGradGradGradGradGradGradGradGradGradGrad

                          Input orientation:                          
 ---------------------------------------------------------------------
 Center     Atomic      Atomic             Coordinates (Angstroms)
 Number     Number       Type             X           Y           Z
 ---------------------------------------------------------------------
      1          1           0        1.452100   -2.997400   -1.304400
      2          6           0        2.440800   -2.597400   -1.097700
      3          1           0        3.142600   -2.582800   -1.927000
      4          6           0        2.796400   -2.137300    0.112900
      5          6           0        1.862300   -2.132700    1.276500
      6          8           0        2.244700   -2.061600    2.433200
      7          8           0        0.559100   -2.205400    0.888100
      8          6           0       -0.117300   -3.357800    1.417600
      9          1           0        0.138000   -4.236300    0.813800
     10          1           0        0.223900   -3.505800    2.447400
     11          6           0       -1.638200   -3.135100    1.390200
     12          1           0       -1.976600   -3.058200    0.348300
     13          1           0       -2.108300   -4.045000    1.788400
     14          7           0       -2.089100   -1.972500    2.182300
     15          6           0       -1.499300   -0.716900    1.711900
     16          1           0       -1.725200   -0.525400    0.657000
     17          1           0       -1.868700    0.128100    2.303800
     18          1           0       -0.413100   -0.712400    1.844000
     19          6           0       -3.550400   -1.867600    2.148200
     20          1           0       -3.929100   -1.707500    1.131800
     21          1           0       -4.015900   -2.771900    2.554400
     22          1           0       -3.889800   -1.034000    2.774400
     23          6           0        4.173900   -1.588700    0.352700
     24          1           0        4.930600   -2.356900    0.158900
     25          1           0        4.364700   -0.736700   -0.308800
     26          1           0        4.323600   -1.239500    1.378500
 ---------------------------------------------------------------------
                    Distance matrix (angstroms):
                    1          2          3          4          5
     1  H    0.000000
     2  C    1.086394   0.000000
     3  H    1.848598   1.086497   0.000000
     4  C    2.134398   1.343017   2.116487   0.000000
     5  C    2.752638   2.487455   3.479105   1.492156   0.000000
     6  O    3.933648   3.576701   4.482100   2.386188   1.220344
     7  O    2.496351   2.763668   3.839491   2.368773   1.361789
     8  C    3.162624   3.667263   4.734334   3.417822   2.332294
     9  H    2.783613   3.412142   4.390179   3.458924   2.759064
    10  H    3.980320   4.278735   5.339112   3.733690   2.437368
    11  C    4.102412   4.808015   5.845075   4.721523   3.642970
    12  H    3.806717   4.670832   5.622206   4.866724   4.056508
    13  H    4.831079   5.578479   6.596528   5.522925   4.436733
    14  N    5.074209   5.627512   6.680531   5.308266   4.057056
    15  C    4.796823   5.191774   6.186308   4.798685   3.673475
    16  H    4.478070   4.972697   5.882638   4.831059   3.979617
    17  H    5.815116   6.129465   7.096603   5.629852   4.481844
    18  H    4.314234   4.511271   5.510158   3.915091   2.741670
    19  C    6.182386   6.852952   7.868609   6.670611   5.488849
    20  H    6.046174   6.807218   7.754441   6.815808   5.808791
    21  H    6.696283   7.420058   8.447652   7.264370   6.049367
    22  H    7.001960   7.583790   8.599802   7.280530   6.044626
    23  C    3.484051   2.474828   2.692368   1.501989   2.548105
    24  H    3.827721   2.799283   2.756620   2.145961   3.273188
    25  H    3.819060   2.790333   2.742296   2.144546   3.274752
    26  H    4.305076   3.394171   3.758397   2.177184   2.620345
                    6          7          8          9         10
     6  O    0.000000
     7  O    2.291126   0.000000
     8  C    2.879344   1.437328   0.000000
     9  H    3.433651   2.075428   1.096136   0.000000
    10  H    2.483857   2.057867   1.094902   1.791552   0.000000
    11  C    4.161390   2.438150   1.537362   2.167894   2.173133
    12  H    4.812421   2.729181   2.165678   2.464983   3.073885
    13  H    4.826826   3.362988   2.138649   2.456075   2.482776
    14  N    4.341971   2.956714   2.528204   3.457970   2.787697
    15  C    4.043022   2.670447   2.995144   3.984158   3.359813
    16  H    4.612473   2.844966   3.344599   4.155343   3.985888
    17  H    4.661715   3.652895   4.000531   5.029407   4.195810
    18  H    3.038322   2.021872   2.695822   3.712532   2.927959
    19  C    5.805346   4.311607   3.813220   4.582102   4.125356
    20  H    6.319401   4.522304   4.163531   4.799714   4.712971
    21  H    6.301930   4.901847   4.103008   4.735931   4.304180
    22  H    6.229323   4.972225   4.633865   5.506528   4.810328
    23  C    2.876444   3.705908   4.762155   4.848803   4.864724
    24  H    3.531813   4.434490   5.297869   5.189417   5.358193
    25  H    3.710569   4.251146   5.471649   5.601109   5.693046
    26  H    2.471855   3.917259   4.920398   5.178701   4.804810
                   11         12         13         14         15
    11  C    0.000000
    12  H    1.098173   0.000000
    13  H    1.098852   1.750716   0.000000
    14  N    1.477285   2.134234   2.109688   0.000000
    15  C    2.443456   2.751164   3.384226   1.464811   0.000000
    16  H    2.712137   2.563898   3.716775   2.133790   1.095681
    17  H    3.396508   3.740071   4.211628   2.115623   1.095823
    18  H    2.752504   3.191305   3.739387   2.123976   1.094213
    19  C    2.416119   2.670958   2.636319   1.465457   2.391961
    20  H    2.711648   2.500104   3.034855   2.135269   2.687328
    21  H    2.672215   3.017878   2.417949   2.118975   3.356502
    22  H    3.376438   3.693735   3.634840   2.115156   2.635137
    23  C    6.103136   6.323614   6.896425   6.536047   5.898530
    24  H    6.728360   6.945294   7.419640   7.315607   6.815059
    25  H    6.683841   6.784779   7.565899   7.027397   6.202428
    26  H    6.255917   6.637884   7.029096   6.504314   5.855803
                   16         17         18         19         20
    16  H    0.000000
    17  H    1.777528   0.000000
    18  H    1.779198   1.742592   0.000000
    19  C    2.712293   2.614411   3.357034   0.000000
    20  H    2.545579   2.998043   3.722863   1.096410   0.000000
    21  H    3.727492   3.617080   4.210270   1.095193   1.778840
    22  H    3.070432   2.378400   3.613380   1.096452   1.775748
    23  C    6.001882   6.577781   4.902290   7.935138   8.141236
    24  H    6.921139   7.550252   5.839441   8.724912   8.936584
    25  H    6.169627   6.813871   5.240469   8.364484   8.473777
    26  H    6.133391   6.408673   4.788617   7.936424   8.269640
                   21         22         23         24         25
    21  H    0.000000
    22  H    1.756302   0.000000
    23  C    8.562726   8.437747   0.000000
    24  H    9.270950   9.294642   1.095575   0.000000
    25  H    9.087046   8.816534   1.095395   1.778773   0.000000
    26  H    8.560272   8.333709   1.093900   1.761947   1.761101
                   26
    26  H    0.000000
 Stoichiometry    C8H15NO2
 Framework group  C1[X(C8H15NO2)]
 Deg. of freedom    72
 Full point group                 C1      NOp   1
 Largest Abelian subgroup         C1      NOp   1
 Largest concise Abelian subgroup C1      NOp   1
                         Standard orientation:                         
 ---------------------------------------------------------------------
 Center     Atomic      Atomic             Coordinates (Angstroms)
 Number     Number       Type             X           Y           Z
 ---------------------------------------------------------------------
      1          1           0       -1.712860    2.146108   -0.655415
      2          6           0       -2.602456    1.522948   -0.678750
      3          1           0       -3.505231    1.978815   -1.075811
      4          6           0       -2.606520    0.251476   -0.246273
      5          6           0       -1.388223   -0.415036    0.299661
      6          8           0       -1.436745   -1.408281    1.007015
      7          8           0       -0.243057    0.208053   -0.093818
      8          6           0        0.541492    0.683888    1.012516
      9          1           0        0.121155    1.629534    1.373881
     10          1           0        0.495473   -0.068096    1.807005
     11          6           0        1.998234    0.900016    0.571296
     12          1           0        2.037525    1.704995   -0.174658
     13          1           0        2.550728    1.276474    1.443365
     14          7           0        2.661254   -0.321324    0.070190
     15          6           0        1.977246   -0.886927   -1.095098
     16          1           0        1.905948   -0.168873   -1.919617
     17          1           0        2.503662   -1.777529   -1.456404
     18          1           0        0.969464   -1.227900   -0.839338
     19          6           0        4.057688   -0.039480   -0.273468
     20          1           0        4.143565    0.703171   -1.075472
     21          1           0        4.608017    0.326475    0.599836
     22          1           0        4.564592   -0.955180   -0.600193
     23          6           0       -3.859292   -0.575278   -0.301151
     24          1           0       -4.647689   -0.115687    0.305059
     25          1           0       -4.216337   -0.657113   -1.333485
     26          1           0       -3.717386   -1.593744    0.071951
 ---------------------------------------------------------------------
 Rotational constants (GHZ):           2.6067666           0.4959024           0.4754702
 Standard basis: 6-311++G(d,p) (5D, 7F)
 There are   358 symmetry adapted cartesian basis functions of A   symmetry.
 There are   347 symmetry adapted basis functions of A   symmetry.
   347 basis functions,   531 primitive gaussians,   358 cartesian basis functions
    43 alpha electrons       43 beta electrons
       nuclear repulsion energy       641.5621944665 Hartrees.
 NAtoms=   26 NActive=   26 NUniq=   26 SFac= 1.00D+00 NAtFMM=   60 NAOKFM=F Big=F
 Integral buffers will be    131072 words long.
 Raffenetti 2 integral format.
 Two-electron integral symmetry is turned on.
 Nuclear repulsion after empirical dispersion term =      641.5224524855 Hartrees.
 One-electron integrals computed using PRISM.
 NBasis=   347 RedAO= T EigKep=  7.29D-06  NBF=   347
 NBsUse=   347 1.00D-06 EigRej= -1.00D+00 NBFU=   347
 ExpMin= 3.60D-02 ExpMax= 8.59D+03 ExpMxC= 1.30D+03 IAcc=3 IRadAn=         5 AccDes= 0.00D+00
 Harris functional with IExCor=  402 and IRadAn=       5 diagonalized for initial guess.
 HarFok:  IExCor=  402 AccDes= 0.00D+00 IRadAn=         5 IDoV= 1 UseB2=F ITyADJ=14
 ICtDFT=  3500011 ScaDFX=  1.000000  1.000000  1.000000  1.000000
 FoFCou: FMM=F IPFlag=           0 FMFlag=      100000 FMFlg1=           0
         NFxFlg=           0 DoJE=T BraDBF=F KetDBF=T FulRan=T
         wScrn=  0.000000 ICntrl=       500 IOpCl=  0 I1Cent=   200000004 NGrid=           0
         NMat0=    1 NMatS0=      1 NMatT0=    0 NMatD0=    1 NMtDS0=    0 NMtDT0=    0
 Petite list used in FoFCou.
 Requested convergence on RMS density matrix=1.00D-08 within 128 cycles.
 Requested convergence on MAX density matrix=1.00D-06.
 Requested convergence on             energy=1.00D-06.
 No special actions if energy rises.
 SCF Done:  E(RB3LYP) =  -519.226880624     A.U. after   14 cycles
            NFock= 14  Conv=0.43D-08     -V/T= 2.0044
 SCF density gives NOpUse=  1 NOpAll=  1.

 **********************************************************************

            Population analysis using the SCF density.

 **********************************************************************

 Orbital symmetries:
 BldTbl:  Degeneracy threshold= 1.00D-02
       Occupied  (A) (A) (A) (A) (A) (A) (A) (A) (A) (A) (A) (A)
                 (A) (A) (A) (A) (A) (A) (A) (A) (A) (A) (A) (A)
                 (A) (A) (A) (A) (A) (A) (A) (A) (A) (A) (A) (A)
                 (A) (A) (A) (A) (A) (A) (A)
       Virtual   (A) (A) (A) (A) (A) (A) (A) (A) (A) (A) (A) (A)
                 (A) (A) (A) (A) (A) (A) (A) (A) (A) (A) (A) (A)
                 (A) (A) (A) (A) (A) (A) (A) (A) (A) (A) (A) (A)
                 (A) (A) (A) (A) (A) (A) (A) (A) (A) (A) (A) (A)
                 (A) (A) (A) (A) (A) (A) (A) (A) (A) (A) (A) (A)
                 (A) (A) (A) (A) (A) (A) (A) (A) (A) (A) (A) (A)
                 (A) (A) (A) (A) (A) (A) (A) (A) (A) (A) (A) (A)
                 (A) (A) (A) (A) (A) (A) (A) (A) (A) (A) (A) (A)
                 (A) (A) (A) (A) (A) (A) (A) (A) (A) (A) (A) (A)
                 (A) (A) (A) (A) (A) (A) (A) (A) (A) (A) (A) (A)
                 (A) (A) (A) (A) (A) (A) (A) (A) (A) (A) (A) (A)
                 (A) (A) (A) (A) (A) (A) (A) (A) (A) (A) (A) (A)
                 (A) (A) (A) (A) (A) (A) (A) (A) (A) (A) (A) (A)
                 (A) (A) (A) (A) (A) (A) (A) (A) (A) (A) (A) (A)
                 (A) (A) (A) (A) (A) (A) (A) (A) (A) (A) (A) (A)
                 (A) (A) (A) (A) (A) (A) (A) (A) (A) (A) (A) (A)
                 (A) (A) (A) (A) (A) (A) (A) (A) (A) (A) (A) (A)
                 (A) (A) (A) (A) (A) (A) (A) (A) (A) (A) (A) (A)
                 (A) (A) (A) (A) (A) (A) (A) (A) (A) (A) (A) (A)
                 (A) (A) (A) (A) (A) (A) (A) (A) (A) (A) (A) (A)
                 (A) (A) (A) (A) (A) (A) (A) (A) (A) (A) (A) (A)
                 (A) (A) (A) (A) (A) (A) (A) (A) (A) (A) (A) (A)
                 (A) (A) (A) (A) (A) (A) (A) (A) (A) (A) (A) (A)
                 (A) (A) (A) (A) (A) (A) (A) (A) (A) (A) (A) (A)
                 (A) (A) (A) (A) (A) (A) (A) (A) (A) (A) (A) (A)
                 (A) (A) (A) (A)
 The electronic state is 1-A.
 Alpha  occ. eigenvalues --  -19.16084 -19.12682 -14.30980 -10.31311 -10.23849
 Alpha  occ. eigenvalues --  -10.20635 -10.20536 -10.19284 -10.18674 -10.17247
 Alpha  occ. eigenvalues --  -10.17152  -1.10984  -1.03104  -0.92052  -0.82444
 Alpha  occ. eigenvalues --   -0.76886  -0.70301  -0.70002  -0.67548  -0.62887
 Alpha  occ. eigenvalues --   -0.58944  -0.56297  -0.51560  -0.49798  -0.48561
 Alpha  occ. eigenvalues --   -0.47424  -0.46469  -0.44987  -0.43674  -0.43337
 Alpha  occ. eigenvalues --   -0.42338  -0.40319  -0.39460  -0.38357  -0.38261
 Alpha  occ. eigenvalues --   -0.37620  -0.36614  -0.36231  -0.34661  -0.29928
 Alpha  occ. eigenvalues --   -0.29026  -0.27955  -0.22203
 Alpha virt. eigenvalues --   -0.07125  -0.01193  -0.00271   0.00400   0.01295
 Alpha virt. eigenvalues --    0.01900   0.02125   0.02618   0.03842   0.03990
 Alpha virt. eigenvalues --    0.04211   0.04319   0.05122   0.05506   0.05683
 Alpha virt. eigenvalues --    0.06921   0.07188   0.07683   0.08209   0.08597
 Alpha virt. eigenvalues --    0.09686   0.09971   0.10561   0.11011   0.11318
 Alpha virt. eigenvalues --    0.11707   0.11829   0.11972   0.12406   0.12709
 Alpha virt. eigenvalues --    0.13079   0.13125   0.13594   0.14026   0.14239
 Alpha virt. eigenvalues --    0.14641   0.15477   0.15729   0.15844   0.16452
 Alpha virt. eigenvalues --    0.16836   0.17127   0.17682   0.18033   0.18143
 Alpha virt. eigenvalues --    0.18764   0.19051   0.19593   0.20085   0.20450
 Alpha virt. eigenvalues --    0.21479   0.21954   0.22207   0.22864   0.23745
 Alpha virt. eigenvalues --    0.24509   0.24851   0.25128   0.25882   0.26149
 Alpha virt. eigenvalues --    0.26583   0.27217   0.27960   0.28343   0.28602
 Alpha virt. eigenvalues --    0.29311   0.29926   0.30938   0.31325   0.31805
 Alpha virt. eigenvalues --    0.32025   0.32898   0.33320   0.33981   0.34414
 Alpha virt. eigenvalues --    0.35672   0.36133   0.37483   0.37598   0.38345
 Alpha virt. eigenvalues --    0.39052   0.41207   0.41927   0.44547   0.45728
 Alpha virt. eigenvalues --    0.46453   0.46976   0.47914   0.49560   0.50309
 Alpha virt. eigenvalues --    0.52203   0.53640   0.54607   0.55978   0.56312
 Alpha virt. eigenvalues --    0.57257   0.57836   0.58334   0.59449   0.60957
 Alpha virt. eigenvalues --    0.62936   0.63163   0.64368   0.64732   0.64911
 Alpha virt. eigenvalues --    0.66116   0.66793   0.67027   0.67226   0.68262
 Alpha virt. eigenvalues --    0.69705   0.70711   0.70999   0.71975   0.73117
 Alpha virt. eigenvalues --    0.74291   0.75028   0.75643   0.76103   0.76343
 Alpha virt. eigenvalues --    0.77290   0.79144   0.79511   0.84717   0.87109
 Alpha virt. eigenvalues --    0.87280   0.88060   0.89816   0.92633   0.93497
 Alpha virt. eigenvalues --    0.95628   0.97439   0.99047   1.01349   1.02216
 Alpha virt. eigenvalues --    1.04824   1.06912   1.08854   1.10597   1.11808
 Alpha virt. eigenvalues --    1.14957   1.16842   1.17592   1.20184   1.21166
 Alpha virt. eigenvalues --    1.24788   1.27439   1.28425   1.30566   1.32399
 Alpha virt. eigenvalues --    1.33737   1.34911   1.39498   1.39920   1.43107
 Alpha virt. eigenvalues --    1.45321   1.46148   1.46545   1.47546   1.48732
 Alpha virt. eigenvalues --    1.51551   1.52620   1.52740   1.54966   1.55922
 Alpha virt. eigenvalues --    1.56952   1.58160   1.59047   1.60794   1.61441
 Alpha virt. eigenvalues --    1.62177   1.63636   1.64084   1.64432   1.65810
 Alpha virt. eigenvalues --    1.66749   1.67797   1.68839   1.70061   1.72624
 Alpha virt. eigenvalues --    1.72934   1.74720   1.75711   1.77233   1.79179
 Alpha virt. eigenvalues --    1.80046   1.80164   1.80860   1.83504   1.84695
 Alpha virt. eigenvalues --    1.86840   1.88634   1.89836   1.94075   1.95119
 Alpha virt. eigenvalues --    2.00377   2.02056   2.03177   2.04834   2.06521
 Alpha virt. eigenvalues --    2.07102   2.08710   2.10362   2.11727   2.13736
 Alpha virt. eigenvalues --    2.15718   2.17541   2.20139   2.24564   2.25233
 Alpha virt. eigenvalues --    2.26202   2.29046   2.31520   2.33435   2.41975
 Alpha virt. eigenvalues --    2.43576   2.44223   2.45680   2.46472   2.48358
 Alpha virt. eigenvalues --    2.49170   2.50950   2.52718   2.53360   2.54252
 Alpha virt. eigenvalues --    2.54748   2.55316   2.57062   2.57681   2.62103
 Alpha virt. eigenvalues --    2.63129   2.64729   2.65379   2.66096   2.67129
 Alpha virt. eigenvalues --    2.68249   2.69897   2.72020   2.73242   2.74398
 Alpha virt. eigenvalues --    2.76145   2.79340   2.80086   2.82812   2.85008
 Alpha virt. eigenvalues --    2.86640   2.87383   2.88353   2.91016   2.91611
 Alpha virt. eigenvalues --    2.93363   2.97830   2.99582   3.00877   3.04601
 Alpha virt. eigenvalues --    3.06997   3.11894   3.17710   3.18707   3.21068
 Alpha virt. eigenvalues --    3.25624   3.29046   3.33922   3.37152   3.52488
 Alpha virt. eigenvalues --    3.54393   3.56751   3.60264   3.70895   3.73263
 Alpha virt. eigenvalues --    3.77051   3.78089   3.78817   3.79837   3.80048
 Alpha virt. eigenvalues --    3.80946   3.82309   3.83104   3.84010   4.01333
 Alpha virt. eigenvalues --    4.11588   4.14351   4.28443   4.29996   4.30588
 Alpha virt. eigenvalues --    4.85732   4.86572   5.08598   5.19439   5.23203
 Alpha virt. eigenvalues --    5.39095   5.63781   5.86261  23.72214  23.82469
 Alpha virt. eigenvalues --   23.83860  23.88452  23.94488  23.96605  23.97873
 Alpha virt. eigenvalues --   24.20007  35.53553  49.91729  50.00289
          Condensed to atoms (all electrons):
               1          2          3          4          5          6
     1  H    0.494426   0.397207  -0.029887  -0.026184  -0.001460   0.000889
     2  C    0.397207   7.241217   0.354394  -0.177175  -0.477500   0.000424
     3  H   -0.029887   0.354394   0.521418  -0.041307   0.012312  -0.000984
     4  C   -0.026184  -0.177175  -0.041307   8.031673  -1.765866  -0.136696
     5  C   -0.001460  -0.477500   0.012312  -1.765866   8.509513   0.578328
     6  O    0.000889   0.000424  -0.000984  -0.136696   0.578328   7.919984
     7  O    0.006857  -0.038098  -0.003588  -0.435392   0.212971  -0.118094
     8  C    0.006340  -0.185808  -0.003752  -0.268396  -0.462425  -0.029667
     9  H   -0.004225  -0.016463   0.000777   0.050990  -0.019952  -0.004904
    10  H    0.000764   0.005172   0.000198  -0.028324   0.076293   0.007963
    11  C   -0.011939   0.057067   0.000764   0.100635   0.043737  -0.010779
    12  H   -0.003218   0.001653   0.000022  -0.012048   0.031526  -0.002153
    13  H    0.001041   0.002007   0.000062   0.007611  -0.002009   0.002422
    14  N    0.001418   0.009480  -0.000088   0.000942   0.000018  -0.002495
    15  C    0.004003  -0.020655  -0.000698  -0.008266  -0.139695   0.006246
    16  H   -0.002860   0.002516   0.000262  -0.002367   0.026831  -0.001612
    17  H    0.001087  -0.005220  -0.000107   0.011573  -0.001198   0.002570
    18  H   -0.000467   0.023236   0.000199  -0.115804   0.029956  -0.019028
    19  C   -0.000107   0.002912  -0.000021  -0.001427   0.007692  -0.000545
    20  H    0.000058  -0.000342  -0.000002   0.000338   0.003887  -0.000064
    21  H   -0.000045  -0.000280  -0.000007   0.000507  -0.003458  -0.000036
    22  H    0.000003   0.000381  -0.000001  -0.000405  -0.000719  -0.000131
    23  C   -0.003336  -0.811215   0.023458  -0.082374   0.109805   0.000101
    24  H    0.001322   0.003649  -0.000861  -0.021241  -0.045859   0.001544
    25  H    0.001074   0.021973  -0.000504  -0.070740  -0.035460   0.005559
    26  H   -0.002659   0.006833   0.002907  -0.052814   0.051168  -0.007154
               7          8          9         10         11         12
     1  H    0.006857   0.006340  -0.004225   0.000764  -0.011939  -0.003218
     2  C   -0.038098  -0.185808  -0.016463   0.005172   0.057067   0.001653
     3  H   -0.003588  -0.003752   0.000777   0.000198   0.000764   0.000022
     4  C   -0.435392  -0.268396   0.050990  -0.028324   0.100635  -0.012048
     5  C    0.212971  -0.462425  -0.019952   0.076293   0.043737   0.031526
     6  O   -0.118094  -0.029667  -0.004904   0.007963  -0.010779  -0.002153
     7  O    8.414084   0.340478  -0.042432  -0.087886  -0.196615  -0.009611
     8  C    0.340478   6.695858   0.328429   0.406217  -0.407946  -0.067280
     9  H   -0.042432   0.328429   0.599673  -0.055782   0.016288  -0.002322
    10  H   -0.087886   0.406217  -0.055782   0.549038  -0.090909   0.017735
    11  C   -0.196615  -0.407946   0.016288  -0.090909   6.149477   0.367332
    12  H   -0.009611  -0.067280  -0.002322   0.017735   0.367332   0.696736
    13  H    0.012588  -0.053844  -0.004817  -0.009085   0.409484  -0.068687
    14  N   -0.030885  -0.063454  -0.005628   0.012517   0.212474  -0.096920
    15  C    0.016491   0.172669   0.001813  -0.024620  -0.250464  -0.046658
    16  H   -0.008608   0.012456   0.001870   0.005011  -0.032948   0.056781
    17  H    0.012738  -0.006787  -0.000379  -0.003338   0.023859  -0.012545
    18  H   -0.025557   0.039365  -0.008635   0.010961  -0.002399  -0.002516
    19  C   -0.001630  -0.084001  -0.001972   0.003214  -0.106888  -0.002090
    20  H    0.002033   0.008119   0.000205   0.000459  -0.025015   0.030991
    21  H    0.000854  -0.003874   0.001952  -0.001811   0.018102  -0.002011
    22  H    0.000530  -0.001859   0.000582  -0.000155   0.008862  -0.000766
    23  C   -0.016648  -0.004441   0.004971  -0.003953  -0.005506  -0.002686
    24  H   -0.002442   0.001798  -0.000263  -0.000152   0.000174  -0.000049
    25  H    0.001572   0.003455  -0.000189   0.000005  -0.001308   0.000053
    26  H   -0.001476  -0.006833   0.000057   0.000255   0.001646  -0.000010
              13         14         15         16         17         18
     1  H    0.001041   0.001418   0.004003  -0.002860   0.001087  -0.000467
     2  C    0.002007   0.009480  -0.020655   0.002516  -0.005220   0.023236
     3  H    0.000062  -0.000088  -0.000698   0.000262  -0.000107   0.000199
     4  C    0.007611   0.000942  -0.008266  -0.002367   0.011573  -0.115804
     5  C   -0.002009   0.000018  -0.139695   0.026831  -0.001198   0.029956
     6  O    0.002422  -0.002495   0.006246  -0.001612   0.002570  -0.019028
     7  O    0.012588  -0.030885   0.016491  -0.008608   0.012738  -0.025557
     8  C   -0.053844  -0.063454   0.172669   0.012456  -0.006787   0.039365
     9  H   -0.004817  -0.005628   0.001813   0.001870  -0.000379  -0.008635
    10  H   -0.009085   0.012517  -0.024620   0.005011  -0.003338   0.010961
    11  C    0.409484   0.212474  -0.250464  -0.032948   0.023859  -0.002399
    12  H   -0.068687  -0.096920  -0.046658   0.056781  -0.012545  -0.002516
    13  H    0.572861  -0.052511   0.019926  -0.007006   0.002435  -0.003074
    14  N   -0.052511   6.797816   0.275220  -0.095087  -0.066261  -0.032724
    15  C    0.019926   0.275220   5.382451   0.354917   0.404378   0.407241
    16  H   -0.007006  -0.095087   0.354917   0.703113  -0.067422  -0.070245
    17  H    0.002435  -0.066261   0.404378  -0.067422   0.594215  -0.032994
    18  H   -0.003074  -0.032724   0.407241  -0.070245  -0.032994   0.607068
    19  C    0.003649   0.286805  -0.151865  -0.016469  -0.002134   0.009386
    20  H   -0.001677  -0.058849  -0.022495   0.038620  -0.006158  -0.005142
    21  H    0.002098  -0.065477   0.018306  -0.003819   0.002001  -0.001366
    22  H   -0.000634  -0.057447   0.006382  -0.001931   0.003338   0.002500
    23  C   -0.000164  -0.001285  -0.000067  -0.001365   0.002669  -0.013527
    24  H    0.000039  -0.000027  -0.000170   0.000063  -0.000023  -0.000400
    25  H   -0.000052  -0.000038   0.000769  -0.000243   0.000182   0.000114
    26  H    0.000072   0.000049  -0.000400   0.000052   0.000024  -0.000584
              19         20         21         22         23         24
     1  H   -0.000107   0.000058  -0.000045   0.000003  -0.003336   0.001322
     2  C    0.002912  -0.000342  -0.000280   0.000381  -0.811215   0.003649
     3  H   -0.000021  -0.000002  -0.000007  -0.000001   0.023458  -0.000861
     4  C   -0.001427   0.000338   0.000507  -0.000405  -0.082374  -0.021241
     5  C    0.007692   0.003887  -0.003458  -0.000719   0.109805  -0.045859
     6  O   -0.000545  -0.000064  -0.000036  -0.000131   0.000101   0.001544
     7  O   -0.001630   0.002033   0.000854   0.000530  -0.016648  -0.002442
     8  C   -0.084001   0.008119  -0.003874  -0.001859  -0.004441   0.001798
     9  H   -0.001972   0.000205   0.001952   0.000582   0.004971  -0.000263
    10  H    0.003214   0.000459  -0.001811  -0.000155  -0.003953  -0.000152
    11  C   -0.106888  -0.025015   0.018102   0.008862  -0.005506   0.000174
    12  H   -0.002090   0.030991  -0.002011  -0.000766  -0.002686  -0.000049
    13  H    0.003649  -0.001677   0.002098  -0.000634  -0.000164   0.000039
    14  N    0.286805  -0.058849  -0.065477  -0.057447  -0.001285  -0.000027
    15  C   -0.151865  -0.022495   0.018306   0.006382  -0.000067  -0.000170
    16  H   -0.016469   0.038620  -0.003819  -0.001931  -0.001365   0.000063
    17  H   -0.002134  -0.006158   0.002001   0.003338   0.002669  -0.000023
    18  H    0.009386  -0.005142  -0.001366   0.002500  -0.013527  -0.000400
    19  C    5.161868   0.376267   0.402393   0.408919  -0.001184  -0.000003
    20  H    0.376267   0.643512  -0.055146  -0.048563   0.000237   0.000001
    21  H    0.402393  -0.055146   0.584063  -0.015906  -0.000005  -0.000001
    22  H    0.408919  -0.048563  -0.015906   0.563368  -0.000183   0.000002
    23  C   -0.001184   0.000237  -0.000005  -0.000183   6.357608   0.416820
    24  H   -0.000003   0.000001  -0.000001   0.000002   0.416820   0.562535
    25  H   -0.000026   0.000002   0.000003  -0.000008   0.430936  -0.049661
    26  H    0.000002   0.000000  -0.000004   0.000001   0.357435  -0.018371
              25         26
     1  H    0.001074  -0.002659
     2  C    0.021973   0.006833
     3  H   -0.000504   0.002907
     4  C   -0.070740  -0.052814
     5  C   -0.035460   0.051168
     6  O    0.005559  -0.007154
     7  O    0.001572  -0.001476
     8  C    0.003455  -0.006833
     9  H   -0.000189   0.000057
    10  H    0.000005   0.000255
    11  C   -0.001308   0.001646
    12  H    0.000053  -0.000010
    13  H   -0.000052   0.000072
    14  N   -0.000038   0.000049
    15  C    0.000769  -0.000400
    16  H   -0.000243   0.000052
    17  H    0.000182   0.000024
    18  H    0.000114  -0.000584
    19  C   -0.000026   0.000002
    20  H    0.000002   0.000000
    21  H    0.000003  -0.000004
    22  H   -0.000008   0.000001
    23  C    0.430936   0.357435
    24  H   -0.049661  -0.018371
    25  H    0.565066  -0.023186
    26  H   -0.023186   0.489347
 Mulliken charges:
               1
     1  H    0.169896
     2  C   -0.397364
     3  H    0.165033
     4  C    1.042557
     5  C   -0.738437
     6  O   -0.191688
     7  O   -0.002234
     8  C   -0.364817
     9  H    0.160356
    10  H    0.210214
    11  C   -0.267185
    12  H    0.128742
    13  H    0.167266
    14  N    0.032438
    15  C   -0.404759
    16  H    0.109489
    17  H    0.143500
    18  H    0.204436
    19  C   -0.292745
    20  H    0.118726
    21  H    0.122967
    22  H    0.133842
    23  C   -0.756101
    24  H    0.151575
    25  H    0.150650
    26  H    0.203643
 Sum of Mulliken charges =  -0.00000
 Mulliken charges with hydrogens summed into heavy atoms:
               1
     2  C   -0.062434
     4  C    1.042557
     5  C   -0.738437
     6  O   -0.191688
     7  O   -0.002234
     8  C    0.005753
    11  C    0.028823
    14  N    0.032438
    15  C    0.052666
    19  C    0.082790
    23  C   -0.250233
 DipInt: DoE/N= T F RetVal/Mat= T F Init=T NMatP=  1 IDeriv=0 Min/MaxMlt=  0  4
 Entering OneElI...
 OneElI was handed 25769474560 working-precision words.
 Multipole integrals L=0 to 4 MinM= 0 MaxM= 0.
 Requested accuracy = 0.1000D-12
 ShPair: Thresh= 1.00D-13 NBox=     0 BxSize= 0.00D+00 RnKept= 1.76D+01
         NSMCal=                10011 NSMKep=                8996
 PrmmSu-InSpLW:  IPartL=    0 NPrtUS=    1 NPrtUL=    1 DoSpLW=F IThBeg=    0 IThEnd=    0 NThAct=    1.
 PrsmSu:  NPrtUS=   1 ThrOK=F IAlg=1 NPAlg=1 LenDen=           0 ISkipM=0 DoSpLW=F IThBeg=    0 IThEnd=    0.
 Prism:   IPart=     0 DynPar=F LinDyn=F Incr=          89.
 PRISM was handed 25768923780 working-precision words and  8996 shell-pairs
 IPart=  0 NShTot=        8996 NBatch=          91 AvBLen=        98.9
 PrsmSu-ThDecC:  IPartSL=    0    0 NPrtUSL=    1    1 IThBeg=    0 IThEnd=    0 CPU=   -1 GPU=   -1 NThAct=    1.
 PrSmSu:  NxtVal=             90.
 Electronic moments (au):
        -86.00000000         -0.14582378          1.17921919         -0.33793411
      -1996.51453600       -307.84604330       -221.26585147         -1.10367570
          2.19776811          3.45214624       -486.24428084       -102.69765095
          1.60285984        357.51010584        205.08129175        902.09403237
       -107.46927893         38.87646919          7.98384455       -465.44027835
     -90244.76757186      -2995.48126146      -1692.82927269       -529.06413721
       -915.58377178        577.54533675        317.43870478        255.26020533
       -130.30837683      -6288.60343029      -4154.63314490      -1058.34569503
         62.50909270       -111.14366024         87.27824383
 Electronic spatial extent (au):  <R**2>=           2525.6264
 DipInt: DoE/N= F T RetVal/Mat= T F Init=T NMatP=  1 IDeriv=0 Min/MaxMlt=  0  4
 Nuclear    moments (au):
         86.00000000          0.00000000          0.00000000         -0.00000000
       1950.76067101        255.53782815        168.90900096          0.00000000
         -0.00000000          0.00000000        466.95329664        108.12024534
          7.89068408       -358.08880533       -196.43145891       -914.37901250
        110.08501462        -34.87969110        -16.47974570        471.07496917
      83287.41616150       1891.71546945        875.59315470        488.86001315
        974.58534141       -606.83019646       -311.47710518       -229.58858105
        138.40892060       4891.98017373       2786.48892740        733.75921047
        -31.28421275        134.70989896        -86.15947278
 Total      moments (au):
         -0.00000000         -0.14582378          1.17921919         -0.33793411
        -45.75386499        -52.30821515        -52.35685051         -1.10367570
          2.19776811          3.45214624        -19.29098420          5.42259439
          9.49354392         -0.57869949          8.64983284        -12.28498013
          2.61573569          3.99677809         -8.49590116          5.63469081
      -6957.35141036      -1103.76579201       -817.23611799        -40.20412407
         59.00156962        -29.28485972          5.96159961         25.67162428
          8.10054378      -1396.62325656      -1368.14421750       -324.58648456
         31.22487995         23.56623872          1.11877105
 Traceless Quadrup. (au):
          4.38577856         -2.16857160         -2.21720696         -1.10367570
          2.19776811          3.45214624
 Charge=             -0.0000 electrons
 Dipole moment (field-independent basis, Debye):
    X=             -0.3706    Y=              2.9973    Z=             -0.8589  Tot=              3.1399
 Quadrupole moment (field-independent basis, Debye-Ang):
   XX=            -61.5405   YY=            -70.3563   ZZ=            -70.4218
   XY=             -1.4845   XZ=              2.9561   YZ=              4.6433
 Traceless Quadrupole moment (field-independent basis, Debye-Ang):
   XX=              5.8990   YY=             -2.9168   ZZ=             -2.9822
   XY=             -1.4845   XZ=              2.9561   YZ=              4.6433
 Octapole moment (field-independent basis, Debye-Ang**2):
  XXX=            -13.7306  YYY=              3.8596  ZZZ=              6.7571  XYY=             -0.4119
  XXY=              6.1566  XXZ=             -8.7440  XZZ=              1.8618  YZZ=              2.8448
  YYZ=             -6.0471  XYZ=              4.0106
 Hexadecapole moment (field-independent basis, Debye-Ang**3):
 XXXX=          -2620.4722 YYYY=           -415.7311 ZZZZ=           -307.8103 XXXY=            -15.1428
 XXXZ=             22.2228 YYYX=            -11.0301 YYYZ=              2.2454 ZZZX=              9.6692
 ZZZY=              3.0511 XXYY=           -526.0353 XXZZ=           -515.3087 YYZZ=           -122.2548
 XXYZ=             11.7608 YYXZ=              8.8762 ZZXY=              0.4214
 N-N= 6.415224524855D+02 E-N=-2.493727454495D+03  KE= 5.169672277854D+02
 Entering OneElI...
 OneElI was handed 25769545553 working-precision words.
 Calculate electrostatic properties
    NBasis =   347  MinDer = 0  MaxDer = 0
    NGrid  =    26  NMatD  =   1
 Requested accuracy = 0.1000D-12
 ShPair: Thresh= 1.00D-13 NBox=     0 BxSize= 0.00D+00 RnKept= 1.76D+01
         NSMCal=                10011 NSMKep=                8442
 PrmmSu-InSpLW:  IPartL=    0 NPrtUS=   48 NPrtUL=    1 DoSpLW=F IThBeg=    0 IThEnd=   47 NThAct=   48.
 PrsmSu:  NPrtUS=  48 ThrOK=T IAlg=1 NPAlg=1 LenDen=           0 ISkipM=0 DoSpLW=F IThBeg=    0 IThEnd=   47.
 Prism:   IPart=     0 DynPar=F LinDyn=F Incr=          45.
 PRISM was handed   536697626 working-precision words and  8442 shell-pairs
 PRISM was handed   536697626 working-precision words and  8442 shell-pairs
 PRISM was handed   536697626 working-precision words and  8442 shell-pairs
 PRISM was handed   536697626 working-precision words and  8442 shell-pairs
 PRISM was handed   536697626 working-precision words and  8442 shell-pairs
 PRISM was handed   536697626 working-precision words and  8442 shell-pairs
 PRISM was handed   536697626 working-precision words and  8442 shell-pairs
 PRISM was handed   536697626 working-precision words and  8442 shell-pairs
 PRISM was handed   536697626 working-precision words and  8442 shell-pairs
 PRISM was handed   536697626 working-precision words and  8442 shell-pairs
 PRISM was handed   536697626 working-precision words and  8442 shell-pairs
 PRISM was handed   536697626 working-precision words and  8442 shell-pairs
 PRISM was handed   536697626 working-precision words and  8442 shell-pairs
 PRISM was handed   536697626 working-precision words and  8442 shell-pairs
 PRISM was handed   536697626 working-precision words and  8442 shell-pairs
 PRISM was handed   536697626 working-precision words and  8442 shell-pairs
 PRISM was handed   536697626 working-precision words and  8442 shell-pairs
 PRISM was handed   536697626 working-precision words and  8442 shell-pairs
 PRISM was handed   536697626 working-precision words and  8442 shell-pairs
 PRISM was handed   536697626 working-precision words and  8442 shell-pairs
 PRISM was handed   536697626 working-precision words and  8442 shell-pairs
 PRISM was handed   536697626 working-precision words and  8442 shell-pairs
 PRISM was handed   536697626 working-precision words and  8442 shell-pairs
 PRISM was handed   536697626 working-precision words and  8442 shell-pairs
 PRISM was handed   536697626 working-precision words and  8442 shell-pairs
 PRISM was handed   536697626 working-precision words and  8442 shell-pairs
 PRISM was handed   536697626 working-precision words and  8442 shell-pairs
 PRISM was handed   536697626 working-precision words and  8442 shell-pairs
 PRISM was handed   536697626 working-precision words and  8442 shell-pairs
 PRISM was handed   536697626 working-precision words and  8442 shell-pairs
 PRISM was handed   536697626 working-precision words and  8442 shell-pairs
 PRISM was handed   536697626 working-precision words and  8442 shell-pairs
 PRISM was handed   536697626 working-precision words and  8442 shell-pairs
 PRISM was handed   536697626 working-precision words and  8442 shell-pairs
 PRISM was handed   536697626 working-precision words and  8442 shell-pairs
 PRISM was handed   536697626 working-precision words and  8442 shell-pairs
 PRISM was handed   536697626 working-precision words and  8442 shell-pairs
 PRISM was handed   536697626 working-precision words and  8442 shell-pairs
 PRISM was handed   536697626 working-precision words and  8442 shell-pairs
 PRISM was handed   536697626 working-precision words and  8442 shell-pairs
 PRISM was handed   536697626 working-precision words and  8442 shell-pairs
 PRISM was handed   536697626 working-precision words and  8442 shell-pairs
 PRISM was handed   536697626 working-precision words and  8442 shell-pairs
 PRISM was handed   536697626 working-precision words and  8442 shell-pairs
 PRISM was handed   536697626 working-precision words and  8442 shell-pairs
 PRISM was handed   536697626 working-precision words and  8442 shell-pairs
 PRISM was handed   536697626 working-precision words and  8442 shell-pairs
 PRISM was handed   536697626 working-precision words and  8442 shell-pairs
 IPart= 38 NShTot=        4238 NBatch=         163 AvBLen=        26.0
 PrsmSu-ThDecC:  IPartSL=   38    0 NPrtUSL=   48    1 IThBeg=    0 IThEnd=   47 CPU=   -1 GPU=   -1 NThAct=   48.
 IPart= 19 NShTot=        4524 NBatch=         174 AvBLen=        26.0
 PrsmSu-ThDecC:  IPartSL=   19    0 NPrtUSL=   48    1 IThBeg=    0 IThEnd=   47 CPU=   -1 GPU=   -1 NThAct=   47.
 IPart= 14 NShTot=        4732 NBatch=         182 AvBLen=        26.0
 PrsmSu-ThDecC:  IPartSL=   14    0 NPrtUSL=   48    1 IThBeg=    0 IThEnd=   47 CPU=   -1 GPU=   -1 NThAct=   46.
 IPart= 11 NShTot=        4836 NBatch=         186 AvBLen=        26.0
 PrsmSu-ThDecC:  IPartSL=   11    0 NPrtUSL=   48    1 IThBeg=    0 IThEnd=   47 CPU=   -1 GPU=   -1 NThAct=   45.
 IPart=  8 NShTot=        5044 NBatch=         194 AvBLen=        26.0
 PrsmSu-ThDecC:  IPartSL=    8    0 NPrtUSL=   48    1 IThBeg=    0 IThEnd=   47 CPU=   -1 GPU=   -1 NThAct=   44.
 IPart=  0 NShTot=        5538 NBatch=         213 AvBLen=        26.0
 PrsmSu-ThDecC:  IPartSL=    0    0 NPrtUSL=   48    1 IThBeg=    0 IThEnd=   47 CPU=   -1 GPU=   -1 NThAct=   43.
 IPart= 40 NShTot=        4212 NBatch=         162 AvBLen=        26.0
 PrsmSu-ThDecC:  IPartSL=   40    0 NPrtUSL=   48    1 IThBeg=    0 IThEnd=   47 CPU=   -1 GPU=   -1 NThAct=   42.
 IPart= 44 NShTot=        4212 NBatch=         162 AvBLen=        26.0
 PrsmSu-ThDecC:  IPartSL=   44    0 NPrtUSL=   48    1 IThBeg=    0 IThEnd=   47 CPU=   -1 GPU=   -1 NThAct=   41.
 IPart=  1 NShTot=        5486 NBatch=         211 AvBLen=        26.0
 PrsmSu-ThDecC:  IPartSL=    1    0 NPrtUSL=   48    1 IThBeg=    0 IThEnd=   47 CPU=   -1 GPU=   -1 NThAct=   40.
 IPart= 30 NShTot=        4316 NBatch=         166 AvBLen=        26.0
 PrsmSu-ThDecC:  IPartSL=   30    0 NPrtUSL=   48    1 IThBeg=    0 IThEnd=   47 CPU=   -1 GPU=   -1 NThAct=   39.
 IPart= 13 NShTot=        4784 NBatch=         184 AvBLen=        26.0
 PrsmSu-ThDecC:  IPartSL=   13    0 NPrtUSL=   48    1 IThBeg=    0 IThEnd=   47 CPU=   -1 GPU=   -1 NThAct=   38.
 IPart=  7 NShTot=        5070 NBatch=         195 AvBLen=        26.0
 PrsmSu-ThDecC:  IPartSL=    7    0 NPrtUSL=   48    1 IThBeg=    0 IThEnd=   47 CPU=   -1 GPU=   -1 NThAct=   37.
 IPart= 10 NShTot=        4940 NBatch=         190 AvBLen=        26.0
 PrsmSu-ThDecC:  IPartSL=   10    0 NPrtUSL=   48    1 IThBeg=    0 IThEnd=   47 CPU=   -1 GPU=   -1 NThAct=   36.
 IPart=  9 NShTot=        5018 NBatch=         193 AvBLen=        26.0
 PrsmSu-ThDecC:  IPartSL=    9    0 NPrtUSL=   48    1 IThBeg=    0 IThEnd=   47 CPU=   -1 GPU=   -1 NThAct=   35.
 IPart= 32 NShTot=        4290 NBatch=         165 AvBLen=        26.0
 PrsmSu-ThDecC:  IPartSL=   32    0 NPrtUSL=   48    1 IThBeg=    0 IThEnd=   47 CPU=   -1 GPU=   -1 NThAct=   34.
 IPart= 34 NShTot=        4290 NBatch=         165 AvBLen=        26.0
 PrsmSu-ThDecC:  IPartSL=   34    0 NPrtUSL=   48    1 IThBeg=    0 IThEnd=   47 CPU=   -1 GPU=   -1 NThAct=   33.
 IPart= 12 NShTot=        4810 NBatch=         185 AvBLen=        26.0
 PrsmSu-ThDecC:  IPartSL=   12    0 NPrtUSL=   48    1 IThBeg=    0 IThEnd=   47 CPU=   -1 GPU=   -1 NThAct=   32.
 IPart= 15 NShTot=        4680 NBatch=         180 AvBLen=        26.0
 PrsmSu-ThDecC:  IPartSL=   15    0 NPrtUSL=   48    1 IThBeg=    0 IThEnd=   47 CPU=   -1 GPU=   -1 NThAct=   31.
 IPart=  3 NShTot=        5330 NBatch=         205 AvBLen=        26.0
 PrsmSu-ThDecC:  IPartSL=    3    0 NPrtUSL=   48    1 IThBeg=    0 IThEnd=   47 CPU=   -1 GPU=   -1 NThAct=   30.
 IPart= 41 NShTot=        4212 NBatch=         162 AvBLen=        26.0
 IPart= 43 NShTot=        4212 NBatch=         162 AvBLen=        26.0
 PrsmSu-ThDecC:  IPartSL=   41    0 NPrtUSL=   48    1 IThBeg=    0 IThEnd=   47 CPU=   -1 GPU=   -1 NThAct=   29.
 PrsmSu-ThDecC:  IPartSL=   43    0 NPrtUSL=   48    1 IThBeg=    0 IThEnd=   47 CPU=   -1 GPU=   -1 NThAct=   28.
 IPart= 42 NShTot=        4212 NBatch=         162 AvBLen=        26.0
 PrsmSu-ThDecC:  IPartSL=   42    0 NPrtUSL=   48    1 IThBeg=    0 IThEnd=   47 CPU=   -1 GPU=   -1 NThAct=   27.
 IPart= 22 NShTot=        4368 NBatch=         168 AvBLen=        26.0
 PrsmSu-ThDecC:  IPartSL=   22    0 NPrtUSL=   48    1 IThBeg=    0 IThEnd=   47 CPU=   -1 GPU=   -1 NThAct=   26.
 IPart= 21 NShTot=        4446 NBatch=         171 AvBLen=        26.0
 PrsmSu-ThDecC:  IPartSL=   21    0 NPrtUSL=   48    1 IThBeg=    0 IThEnd=   47 CPU=   -1 GPU=   -1 NThAct=   25.
 IPart= 17 NShTot=        4602 NBatch=         177 AvBLen=        26.0
 PrsmSu-ThDecC:  IPartSL=   17    0 NPrtUSL=   48    1 IThBeg=    0 IThEnd=   47 CPU=   -1 GPU=   -1 NThAct=   24.
 IPart= 20 NShTot=        4524 NBatch=         174 AvBLen=        26.0
 PrsmSu-ThDecC:  IPartSL=   20    0 NPrtUSL=   48    1 IThBeg=    0 IThEnd=   47 CPU=   -1 GPU=   -1 NThAct=   23.
 IPart=  2 NShTot=        5408 NBatch=         208 AvBLen=        26.0
 PrsmSu-ThDecC:  IPartSL=    2    0 NPrtUSL=   48    1 IThBeg=    0 IThEnd=   47 CPU=   -1 GPU=   -1 NThAct=   22.
 IPart= 28 NShTot=        4316 NBatch=         166 AvBLen=        26.0
 PrsmSu-ThDecC:  IPartSL=   28    0 NPrtUSL=   48    1 IThBeg=    0 IThEnd=   47 CPU=   -1 GPU=   -1 NThAct=   21.
 IPart= 26 NShTot=        4316 NBatch=         166 AvBLen=        26.0
 PrsmSu-ThDecC:  IPartSL=   26    0 NPrtUSL=   48    1 IThBeg=    0 IThEnd=   47 CPU=   -1 GPU=   -1 NThAct=   20.
 IPart= 25 NShTot=        4368 NBatch=         168 AvBLen=        26.0
 PrsmSu-ThDecC:  IPartSL=   25    0 NPrtUSL=   48    1 IThBeg=    0 IThEnd=   47 CPU=   -1 GPU=   -1 NThAct=   19.
 IPart= 37 NShTot=        4238 NBatch=         163 AvBLen=        26.0
 PrsmSu-ThDecC:  IPartSL=   37    0 NPrtUSL=   48    1 IThBeg=    0 IThEnd=   47 CPU=   -1 GPU=   -1 NThAct=   18.
 IPart= 47 NShTot=        4186 NBatch=         161 AvBLen=        26.0
 PrsmSu-ThDecC:  IPartSL=   47    0 NPrtUSL=   48    1 IThBeg=    0 IThEnd=   47 CPU=   -1 GPU=   -1 NThAct=   17.
 IPart= 31 NShTot=        4290 NBatch=         165 AvBLen=        26.0
 PrsmSu-ThDecC:  IPartSL=   31    0 NPrtUSL=   48    1 IThBeg=    0 IThEnd=   47 CPU=   -1 GPU=   -1 NThAct=   16.
 IPart= 35 NShTot=        4290 NBatch=         165 AvBLen=        26.0
 PrsmSu-ThDecC:  IPartSL=   35    0 NPrtUSL=   48    1 IThBeg=    0 IThEnd=   47 CPU=   -1 GPU=   -1 NThAct=   15.
 IPart=  6 NShTot=        5070 NBatch=         195 AvBLen=        26.0
 PrsmSu-ThDecC:  IPartSL=    6    0 NPrtUSL=   48    1 IThBeg=    0 IThEnd=   47 CPU=   -1 GPU=   -1 NThAct=   14.
 IPart= 18 NShTot=        4550 NBatch=         175 AvBLen=        26.0
 PrsmSu-ThDecC:  IPartSL=   18    0 NPrtUSL=   48    1 IThBeg=    0 IThEnd=   47 CPU=   -1 GPU=   -1 NThAct=   13.
 IPart= 23 NShTot=        4368 NBatch=         168 AvBLen=        26.0
 PrsmSu-ThDecC:  IPartSL=   23    0 NPrtUSL=   48    1 IThBeg=    0 IThEnd=   47 CPU=   -1 GPU=   -1 NThAct=   12.
 IPart= 27 NShTot=        4316 NBatch=         166 AvBLen=        26.0
 PrsmSu-ThDecC:  IPartSL=   27    0 NPrtUSL=   48    1 IThBeg=    0 IThEnd=   47 CPU=   -1 GPU=   -1 NThAct=   11.
 IPart= 46 NShTot=        4186 NBatch=         161 AvBLen=        26.0
 PrsmSu-ThDecC:  IPartSL=   46    0 NPrtUSL=   48    1 IThBeg=    0 IThEnd=   47 CPU=   -1 GPU=   -1 NThAct=   10.
 IPart= 36 NShTot=        4238 NBatch=         163 AvBLen=        26.0
 PrsmSu-ThDecC:  IPartSL=   36    0 NPrtUSL=   48    1 IThBeg=    0 IThEnd=   47 CPU=   -1 GPU=   -1 NThAct=    9.
 IPart= 45 NShTot=        4186 NBatch=         161 AvBLen=        26.0
 PrsmSu-ThDecC:  IPartSL=   45    0 NPrtUSL=   48    1 IThBeg=    0 IThEnd=   47 CPU=   -1 GPU=   -1 NThAct=    8.
 IPart= 29 NShTot=        4316 NBatch=         166 AvBLen=        26.0
 IPart= 24 NShTot=        4368 NBatch=         168 AvBLen=        26.0
 IPart= 16 NShTot=        4628 NBatch=         178 AvBLen=        26.0
 PrsmSu-ThDecC:  IPartSL=   29    0 NPrtUSL=   48    1 IThBeg=    0 IThEnd=   47 CPU=   -1 GPU=   -1 NThAct=    7.
 PrsmSu-ThDecC:  IPartSL=   16    0 NPrtUSL=   48    1 IThBeg=    0 IThEnd=   47 CPU=   -1 GPU=   -1 NThAct=    6.
 PrsmSu-ThDecC:  IPartSL=   24    0 NPrtUSL=   48    1 IThBeg=    0 IThEnd=   47 CPU=   -1 GPU=   -1 NThAct=    5.
 IPart= 33 NShTot=        4290 NBatch=         165 AvBLen=        26.0
 PrsmSu-ThDecC:  IPartSL=   33    0 NPrtUSL=   48    1 IThBeg=    0 IThEnd=   47 CPU=   -1 GPU=   -1 NThAct=    4.
 IPart=  5 NShTot=        5174 NBatch=         199 AvBLen=        26.0
 PrsmSu-ThDecC:  IPartSL=    5    0 NPrtUSL=   48    1 IThBeg=    0 IThEnd=   47 CPU=   -1 GPU=   -1 NThAct=    3.
 IPart=  4 NShTot=        5226 NBatch=         201 AvBLen=        26.0
 PrsmSu-ThDecC:  IPartSL=    4    0 NPrtUSL=   48    1 IThBeg=    0 IThEnd=   47 CPU=   -1 GPU=   -1 NThAct=    2.
 IPart= 39 NShTot=        4238 NBatch=         163 AvBLen=        26.0
 PrsmSu-ThDecC:  IPartSL=   39    0 NPrtUSL=   48    1 IThBeg=    0 IThEnd=   47 CPU=   -1 GPU=   -1 NThAct=    1.
 PrSmSu:  NxtVal=           2161.
 --------------------------------------------------------
       Center         ----      EFG at Nuclei      ----
                      3XX-RR        3YY-RR        3ZZ-RR
 --------------------------------------------------------
     1   Atom       -0.157102     -0.001488      0.158590
     2   Atom        0.114234      0.183832     -0.298066
     3   Atom       -0.170716      0.070240      0.100477
     4   Atom        0.044802      0.183846     -0.228648
     5   Atom        0.096123      0.063739     -0.159862
     6   Atom        1.702922     -0.856404     -0.846518
     7   Atom       -0.746378      0.969754     -0.223376
     8   Atom       -0.007778      0.189200     -0.181422
     9   Atom        0.075223     -0.176437      0.101213
    10   Atom        0.140884     -0.051056     -0.089828
    11   Atom        0.002587     -0.105973      0.103386
    12   Atom        0.144152     -0.086681     -0.057471
    13   Atom        0.029848      0.097525     -0.127372
    14   Atom       -0.621501      0.213651      0.407850
    15   Atom        0.117979      0.033985     -0.151963
    16   Atom        0.153568     -0.048688     -0.104880
    17   Atom        0.039078     -0.139157      0.100079
    18   Atom       -0.221549      0.108134      0.113416
    19   Atom       -0.184784      0.100164      0.084620
    20   Atom        0.136298     -0.051551     -0.084747
    21   Atom        0.031710      0.105384     -0.137094
    22   Atom        0.047893     -0.163066      0.115173
    23   Atom       -0.059739      0.035290      0.024449
    24   Atom       -0.084329      0.067567      0.016762
    25   Atom        0.101494      0.149239     -0.250732
    26   Atom        0.136041     -0.237697      0.101656
 --------------------------------------------------------
                        XY            XZ            YZ
 --------------------------------------------------------
     1   Atom       -0.221439     -0.012447     -0.000804
     2   Atom        0.040462      0.102469     -0.152053
     3   Atom        0.161016     -0.143249      0.074801
     4   Atom        0.062750      0.050795     -0.147951
     5   Atom       -0.095532      0.162226     -0.312510
     6   Atom       -0.035325      0.249469     -0.238466
     7   Atom       -1.469490     -0.316100     -0.561015
     8   Atom       -0.128714     -0.289849     -0.223569
     9   Atom        0.144803      0.044938     -0.127320
    10   Atom       -0.018343      0.001935      0.210011
    11   Atom        0.082350      0.062995     -0.075139
    12   Atom       -0.005602      0.016149      0.215088
    13   Atom       -0.068429     -0.171217     -0.121992
    14   Atom        0.041111      0.013314     -0.946033
    15   Atom       -0.048788     -0.148955     -0.101704
    16   Atom        0.012948     -0.027135      0.216707
    17   Atom        0.178243      0.063679     -0.122857
    18   Atom       -0.129951      0.091949      0.024023
    19   Atom       -0.064029      0.079996      0.031137
    20   Atom       -0.021359      0.024032      0.223744
    21   Atom       -0.075802     -0.173469     -0.123891
    22   Atom        0.165423      0.062146     -0.113392
    23   Atom       -0.069682     -0.000332     -0.028631
    24   Atom        0.133655      0.179275     -0.107461
    25   Atom       -0.014759     -0.137595     -0.027862
    26   Atom        0.050426     -0.018571      0.140579
 --------------------------------------------------------


 ---------------------------------------------------------------------------------
              Nuclear Quadrupole Coupling Constant in Principal Axis System
 ---------------------------------------------------------------------------------

       Atom             a.u.   MegaHertz   Gauss  10(-4) cm-1        Axes

              Baa    -0.6715     3.225     1.151     1.076  0.6207 -0.5858 -0.5211
    14 N(14)  Bbb    -0.5904     2.836     1.012     0.946  0.7840  0.4558  0.4215
              Bcc     1.2619    -6.061    -2.163    -2.022 -0.0094 -0.6702  0.7422
 

 ---------------------------------------------------------------------------------

 No NMR shielding tensors so no spin-rotation constants.
 Leave Link  601 at Thu Apr 21 16:33:23 2022, MaxMem= 25769803776 cpu:              15.3 elap:               0.4
 Calling FoFJK, ICntrl=      2127 FMM=F ISym2X=0 I1Cent= 0 IOpClX= 0 NMat=1 NMatS=1 NMatT=0.
 ***** Axes restored to original set *****
 -------------------------------------------------------------------
 Center     Atomic                   Forces (Hartrees/Bohr)
 Number     Number              X              Y              Z
 -------------------------------------------------------------------
      1        1           0.001656029    0.002698216    0.001879987
      2        6          -0.006426568   -0.000224642    0.005345490
      3        1           0.000485400   -0.001287862    0.002034540
      4        6           0.002215562    0.007814760   -0.005134466
      5        6           0.016597937    0.002340969    0.003742367
      6        8          -0.013906341   -0.003418880   -0.019587910
      7        8           0.012478317   -0.019228702   -0.005021646
      8        6          -0.019503392    0.002297598    0.015502241
      9        1           0.000319901    0.001376392   -0.000618358
     10        1          -0.002305532   -0.001076217   -0.001526981
     11        6           0.004869541    0.005094669    0.005353052
     12        1           0.000292251    0.002410105   -0.005759535
     13        1           0.001670979    0.003105303    0.001441558
     14        7          -0.000175863   -0.004259646   -0.002240074
     15        6           0.006171699    0.008843971    0.010807265
     16        1          -0.000343984    0.001442170   -0.005079554
     17        1          -0.005593306   -0.004014623   -0.000336538
     18        1          -0.010873729    0.000302097   -0.000790745
     19        6           0.002038165   -0.003185129    0.007651163
     20        1          -0.002469670    0.000670572   -0.004788827
     21        1           0.002291290   -0.000654843   -0.001658329
     22        1           0.003572032   -0.000843567   -0.002001516
     23        6           0.009867631    0.002306379    0.003821862
     24        1           0.000094089    0.002485966   -0.000608620
     25        1           0.000645975   -0.002303466   -0.000510266
     26        1          -0.003668412   -0.002691590   -0.001916159
 -------------------------------------------------------------------
 Cartesian Forces:  Max     0.019587910 RMS     0.006323074

 GradGradGradGradGradGradGradGradGradGradGradGradGradGradGradGradGradGrad
 Berny optimization.
 FormGI is forming the generalized inverse of G from B-inverse, IUseBI=4.
 Internal  Forces:  Max     0.039960214 RMS     0.007946115
 Search for a local minimum.
 Step number   1 out of a maximum of  124
 All quantities printed in internal units (Hartrees-Bohrs-Radians)
 Mixed Optimization -- RFO/linear search
 Second derivative matrix not updated -- first step.
 ITU=  0
     Eigenvalues ---    0.00272   0.00669   0.00740   0.00826   0.00834
     Eigenvalues ---    0.00870   0.01198   0.01327   0.01422   0.02197
     Eigenvalues ---    0.02841   0.02843   0.02843   0.03875   0.05080
     Eigenvalues ---    0.05415   0.05735   0.07036   0.07042   0.07098
     Eigenvalues ---    0.07292   0.07361   0.07378   0.09549   0.11352
     Eigenvalues ---    0.13009   0.13740   0.16000   0.16000   0.16000
     Eigenvalues ---    0.16000   0.16000   0.16000   0.16000   0.16000
     Eigenvalues ---    0.16000   0.16000   0.16000   0.16633   0.17168
     Eigenvalues ---    0.21937   0.22083   0.24999   0.25000   0.25000
     Eigenvalues ---    0.25000   0.25000   0.28754   0.32169   0.33214
     Eigenvalues ---    0.33809   0.33885   0.34078   0.34082   0.34113
     Eigenvalues ---    0.34148   0.34164   0.34176   0.34197   0.34219
     Eigenvalues ---    0.34252   0.34330   0.34366   0.34882   0.35221
     Eigenvalues ---    0.35233   0.36290   0.36369   0.39954   0.52587
     Eigenvalues ---    0.56534   0.95231
 RFO step:  Lambda=-3.74921206D-02 EMin= 2.71715845D-03
 Linear search not attempted -- first point.
 Maximum step size (   0.300) exceeded in Quadratic search.
    -- Step size scaled by   0.932
 Iteration  1 RMS(Cart)=  0.29667579 RMS(Int)=  0.01552933
 Iteration  2 RMS(Cart)=  0.04361312 RMS(Int)=  0.00137761
 Iteration  3 RMS(Cart)=  0.00109539 RMS(Int)=  0.00132739
 Iteration  4 RMS(Cart)=  0.00000177 RMS(Int)=  0.00132739
 Iteration  5 RMS(Cart)=  0.00000000 RMS(Int)=  0.00132739
 Variable       Old X    -DE/DX   Delta X   Delta X   Delta X     New X
                                 (Linear)    (Quad)   (Total)
    R1        2.05299  -0.00286   0.00000  -0.00683  -0.00683   2.04615
    R2        2.05318  -0.00126   0.00000  -0.00301  -0.00301   2.05018
    R3        2.53794  -0.00762   0.00000  -0.01178  -0.01178   2.52615
    R4        2.81977  -0.00081   0.00000  -0.00204  -0.00204   2.81772
    R5        2.83835   0.00642   0.00000   0.01665   0.01665   2.85500
    R6        2.30612  -0.02312   0.00000  -0.02178  -0.02178   2.28434
    R7        2.57341   0.00453   0.00000   0.00750   0.00750   2.58090
    R8        2.71616   0.00608   0.00000   0.01297   0.01297   2.72913
    R9        2.07140  -0.00069   0.00000  -0.00169  -0.00169   2.06970
   R10        2.06906  -0.00201   0.00000  -0.00493  -0.00493   2.06414
   R11        2.90519  -0.00019   0.00000  -0.00054  -0.00054   2.90465
   R12        2.07525   0.00554   0.00000   0.01373   0.01373   2.08897
   R13        2.07653  -0.00276   0.00000  -0.00686  -0.00686   2.06967
   R14        2.79166   0.00114   0.00000   0.00276   0.00276   2.79442
   R15        2.76809  -0.00013   0.00000  -0.00029  -0.00029   2.76780
   R16        2.76931  -0.00568   0.00000  -0.01323  -0.01323   2.75608
   R17        2.07054   0.00521   0.00000   0.01282   0.01282   2.08336
   R18        2.07080  -0.00139   0.00000  -0.00342  -0.00342   2.06738
   R19        2.06776  -0.01089   0.00000  -0.02665  -0.02665   2.04111
   R20        2.07191   0.00539   0.00000   0.01328   0.01328   2.08520
   R21        2.06961  -0.00105   0.00000  -0.00257  -0.00257   2.06704
   R22        2.07199  -0.00289   0.00000  -0.00712  -0.00712   2.06487
   R23        2.07034  -0.00157   0.00000  -0.00386  -0.00386   2.06648
   R24        2.07000  -0.00137   0.00000  -0.00337  -0.00337   2.06663
   R25        2.06717  -0.00316   0.00000  -0.00772  -0.00772   2.05945
    A1        2.03484   0.00193   0.00000   0.00912   0.00912   2.04396
    A2        2.13958  -0.00177   0.00000  -0.00834  -0.00834   2.13124
    A3        2.10876  -0.00017   0.00000  -0.00078  -0.00078   2.10798
    A4        2.13913  -0.01118   0.00000  -0.03621  -0.03627   2.10286
    A5        2.10816   0.00791   0.00000   0.02568   0.02561   2.13377
    A6        2.03588   0.00328   0.00000   0.01065   0.01058   2.04646
    A7        2.14499   0.00214   0.00000   0.00689   0.00686   2.15185
    A8        1.95681   0.01205   0.00000   0.03904   0.03900   1.99581
    A9        2.18135  -0.01419   0.00000  -0.04604  -0.04607   2.13528
   A10        1.96934   0.01545   0.00000   0.05009   0.05009   2.01944
   A11        1.90715  -0.01364   0.00000  -0.07669  -0.07479   1.83236
   A12        1.88411  -0.00177   0.00000   0.03377   0.03084   1.91496
   A13        1.92074   0.02544   0.00000   0.09642   0.09523   2.01597
   A14        1.91471   0.00266   0.00000  -0.00595  -0.00618   1.90854
   A15        1.91420  -0.00735   0.00000  -0.04429  -0.04290   1.87131
   A16        1.92264  -0.00531   0.00000  -0.00277  -0.00620   1.91645
   A17        1.90912  -0.00995   0.00000  -0.00485  -0.01123   1.89789
   A18        1.87216  -0.01443   0.00000  -0.07864  -0.07409   1.79807
   A19        1.98931   0.03996   0.00000   0.15087   0.14890   2.13820
   A20        1.84415   0.00675   0.00000   0.00558   0.00412   1.84827
   A21        1.93858  -0.00863   0.00000   0.00573  -0.00059   1.93799
   A22        1.90369  -0.01638   0.00000  -0.09332  -0.08867   1.81502
   A23        1.96005   0.02299   0.00000   0.10944   0.10918   2.06923
   A24        1.92646  -0.01298   0.00000  -0.05501  -0.05422   1.87225
   A25        1.90993  -0.00819   0.00000  -0.03294  -0.03140   1.87854
   A26        1.95625   0.00217   0.00000   0.00970   0.00950   1.96575
   A27        1.93028  -0.00866   0.00000  -0.04420  -0.04423   1.88605
   A28        1.94384   0.00196   0.00000   0.01311   0.01306   1.95690
   A29        1.89206   0.00120   0.00000  -0.00144  -0.00161   1.89045
   A30        1.89671  -0.00034   0.00000   0.00428   0.00409   1.90080
   A31        1.84030   0.00384   0.00000   0.01929   0.01941   1.85971
   A32        1.95675   0.00181   0.00000   0.00792   0.00794   1.96469
   A33        1.93489  -0.00244   0.00000  -0.01120  -0.01122   1.92366
   A34        1.92815  -0.00352   0.00000  -0.01628  -0.01630   1.91185
   A35        1.89398   0.00016   0.00000   0.00014   0.00016   1.89414
   A36        1.88757   0.00075   0.00000   0.00299   0.00301   1.89058
   A37        1.85914   0.00344   0.00000   0.01746   0.01740   1.87654
   A38        1.92740   0.00286   0.00000   0.01316   0.01318   1.94058
   A39        1.92562   0.00080   0.00000   0.00400   0.00399   1.92961
   A40        1.97340  -0.00559   0.00000  -0.02627  -0.02622   1.94718
   A41        1.89468  -0.00197   0.00000  -0.00955  -0.00957   1.88511
   A42        1.87046   0.00124   0.00000   0.00544   0.00551   1.87597
   A43        1.86938   0.00272   0.00000   0.01346   0.01347   1.88285
    D1       -0.00314   0.00187   0.00000   0.02861   0.02851   0.02538
    D2       -3.13825   0.00067   0.00000   0.00723   0.00732  -3.13093
    D3        3.13619   0.00223   0.00000   0.03369   0.03360  -3.11340
    D4        0.00108   0.00103   0.00000   0.01231   0.01241   0.01348
    D5        2.79259   0.00186   0.00000   0.03804   0.03832   2.83090
    D6       -0.35754   0.00104   0.00000   0.02349   0.02360  -0.33394
    D7       -0.35523   0.00303   0.00000   0.05865   0.05853  -0.29669
    D8        2.77783   0.00221   0.00000   0.04410   0.04382   2.82165
    D9       -1.05725   0.00053   0.00000   0.01016   0.01031  -1.04694
   D10        1.03738   0.00043   0.00000   0.00930   0.00951   1.04689
   D11        3.13034   0.00071   0.00000   0.01165   0.01187  -3.14097
   D12        2.09045  -0.00054   0.00000  -0.00983  -0.01006   2.08039
   D13       -2.09811  -0.00065   0.00000  -0.01068  -0.01086  -2.10897
   D14       -0.00515  -0.00037   0.00000  -0.00833  -0.00850  -0.01364
   D15        2.10305   0.00909   0.00000   0.14393   0.14376   2.24681
   D16       -1.04729   0.00835   0.00000   0.12934   0.12951  -0.91778
   D17       -1.39625   0.00274   0.00000   0.02435   0.02382  -1.37244
   D18        0.68520  -0.00282   0.00000  -0.00664  -0.00846   0.67673
   D19        2.78409   0.00459   0.00000   0.06734   0.06970   2.85378
   D20        1.13454  -0.00361   0.00000  -0.07995  -0.08021   1.05433
   D21        3.12676  -0.00823   0.00000  -0.11711  -0.11684   3.00992
   D22       -1.04721  -0.01396   0.00000  -0.19550  -0.19778  -1.24499
   D23       -0.96405   0.00193   0.00000  -0.01770  -0.01674  -0.98078
   D24        1.02817  -0.00269   0.00000  -0.05487  -0.05337   0.97480
   D25        3.13739  -0.00843   0.00000  -0.13325  -0.13430   3.00308
   D26       -3.07320   0.00672   0.00000   0.01984   0.02062  -3.05258
   D27       -1.08098   0.00209   0.00000  -0.01733  -0.01601  -1.09699
   D28        1.02823  -0.00364   0.00000  -0.09571  -0.09695   0.93128
   D29        1.04720   0.01005   0.00000   0.13407   0.13685   1.18405
   D30       -3.09956   0.00624   0.00000   0.12860   0.13027  -2.96929
   D31       -1.11879  -0.00040   0.00000   0.02034   0.02006  -1.09873
[...]
 **** Fit       0.004592
 **** Fit       0.005885
 **** Fit       0.007185
 **** Fit       0.008136
 **** Fit       0.008438
 **** Fit       0.008089
 **** Fit       0.007363
 **** Fit       0.006567
 **** Fit       0.005877
 **** Fit       0.005336
 **** Fit       0.004918
 **** Fit       0.001247
 **** Fit       0.001753
 **** Fit       0.002320
 **** Fit       0.002955
 **** Fit       0.003696
 **** Fit       0.004599
 **** Fit       0.005677
 **** Fit       0.006788
 **** Fit       0.007621
 **** Fit       0.007883
 **** Fit       0.007552
 **** Fit       0.006876
 **** Fit       0.006145
 **** Fit       0.005528
 **** Fit       0.005058
 **** Fit       0.004704
 **** Fit       0.004422
 **** Fit       0.001282
 **** Fit       0.001799
 **** Fit       0.002379
 **** Fit       0.002998
 **** Fit       0.003631
 **** Fit       0.004280
 **** Fit       0.004986
 **** Fit       0.005792
 **** Fit       0.006631
 **** Fit       0.007265
 **** Fit       0.007430
 **** Fit       0.007085
 **** Fit       0.006445
 **** Fit       0.005775
 **** Fit       0.005227
 **** Fit       0.004822
 **** Fit       0.004522
 **** Fit       0.004281
 **** Fit       0.001851
 **** Fit       0.002484
 **** Fit       0.003198
 **** Fit       0.003952
 **** Fit       0.004681
 **** Fit       0.005324
 **** Fit       0.005869
 **** Fit       0.006370
 **** Fit       0.006856
 **** Fit       0.007199
 **** Fit       0.007187
 **** Fit       0.006772
 **** Fit       0.006135
 **** Fit       0.005510
 **** Fit       0.005017
 **** Fit       0.004660
 **** Fit       0.004395
 **** Fit       0.004176
 **** Fit       0.003978
 **** Fit       0.002460
 **** Fit       0.003229
 **** Fit       0.004111
 **** Fit       0.005055
 **** Fit       0.005958
 **** Fit       0.006675
 **** Fit       0.007095
 **** Fit       0.007254
 **** Fit       0.007289
 **** Fit       0.007236
 **** Fit       0.006982
 **** Fit       0.006482
 **** Fit       0.005867
 **** Fit       0.005307
 **** Fit       0.004877
 **** Fit       0.004560
 **** Fit       0.004314
 **** Fit       0.004103
 **** Fit       0.003908
 **** Fit       0.002302
 **** Fit       0.003035
 **** Fit       0.003922
 **** Fit       0.004952
 **** Fit       0.006069
 **** Fit       0.007135
 **** Fit       0.007927
 **** Fit       0.008237
 **** Fit       0.008055
 **** Fit       0.007616
 **** Fit       0.007134
 **** Fit       0.006633
 **** Fit       0.006084
 **** Fit       0.005543
 **** Fit       0.005091
 **** Fit       0.004746
 **** Fit       0.004477
 **** Fit       0.004248
 **** Fit       0.004040
 **** Fit       0.003844
 **** Fit       0.002717
 **** Fit       0.003506
 **** Fit       0.004455
 **** Fit       0.005555
 **** Fit       0.006741
 **** Fit       0.007854
 **** Fit       0.008634
 **** Fit       0.008822
 **** Fit       0.008388
 **** Fit       0.007606
 **** Fit       0.006807
 **** Fit       0.006133
 **** Fit       0.005583
 **** Fit       0.005149
 **** Fit       0.004825
 **** Fit       0.004576
 **** Fit       0.004362
 **** Fit       0.004159
 **** Fit       0.003961
 **** Fit       0.003768
 **** Fit       0.003824
 **** Fit       0.004765
 **** Fit       0.005832
 **** Fit       0.006952
 **** Fit       0.007963
 **** Fit       0.008616
 **** Fit       0.008680
 **** Fit       0.008132
 **** Fit       0.007231
 **** Fit       0.006320
 **** Fit       0.005592
 **** Fit       0.005077
 **** Fit       0.004739
 **** Fit       0.004519
 **** Fit       0.004354
 **** Fit       0.004196
 **** Fit       0.004028
 **** Fit       0.003850
 **** Fit       0.003670
 **** Fit       0.003980
 **** Fit       0.004848
 **** Fit       0.005799
 **** Fit       0.006754
 **** Fit       0.007568
 **** Fit       0.008041
 **** Fit       0.008007
 **** Fit       0.007468
 **** Fit       0.006632
 **** Fit       0.005781
 **** Fit       0.005101
 **** Fit       0.004643
 **** Fit       0.004370
 **** Fit       0.004214
 **** Fit       0.004103
 **** Fit       0.003990
 **** Fit       0.003857
 **** Fit       0.003707
 **** Fit       0.003994
 **** Fit       0.004752
 **** Fit       0.005546
 **** Fit       0.006303
 **** Fit       0.006905
 **** Fit       0.007213
 **** Fit       0.007127
 **** Fit       0.006665
 **** Fit       0.005979
 **** Fit       0.005273
 **** Fit       0.004696
 **** Fit       0.004301
 **** Fit       0.004068
 **** Fit       0.003940
 **** Fit       0.003855
 **** Fit       0.003770
 **** Fit       0.003666
 **** Fit       0.003543
 **** Fit       0.004541
 **** Fit       0.005177
 **** Fit       0.005751
 **** Fit       0.006177
 **** Fit       0.006366
 **** Fit       0.006266
 **** Fit       0.005902
 **** Fit       0.005377
 **** Fit       0.004830
 **** Fit       0.004366
 **** Fit       0.004034
 **** Fit       0.003828
 **** Fit       0.003709
 **** Fit       0.003631
 **** Fit       0.003559
 **** Fit       0.003475
 **** Fit       0.004769
 **** Fit       0.005197
 **** Fit       0.005495
 **** Fit       0.005611
 **** Fit       0.005521
 **** Fit       0.005247
 **** Fit       0.004860
 **** Fit       0.004449
 **** Fit       0.004087
 **** Fit       0.003814
 **** Fit       0.003630
 **** Fit       0.003515
 **** Fit       0.003436
 **** Fit       0.004902
 **** Fit       0.004977
 **** Fit       0.004904
 **** Fit       0.004704
 **** Fit       0.004423
 **** Fit       0.004119
 **** Fit       0.004454
 **** Fit       0.004876
 **** Fit       0.005155
 **** Fit       0.005282
 **** Fit       0.003601
 **** Fit       0.004286
 **** Fit       0.004894
 **** Fit       0.005362
 **** Fit       0.005649
 **** Fit       0.005746
 **** Fit       0.005680
 **** Fit       0.005497
 **** Fit       0.003076
 **** Fit       0.003852
 **** Fit       0.004622
 **** Fit       0.005306
 **** Fit       0.005821
 **** Fit       0.006110
 **** Fit       0.006168
 **** Fit       0.006034
 **** Fit       0.005775
 **** Fit       0.005453
 **** Fit       0.002447
 **** Fit       0.003209
 **** Fit       0.004041
 **** Fit       0.004882
 **** Fit       0.005636
 **** Fit       0.006194
 **** Fit       0.006481
 **** Fit       0.006493
 **** Fit       0.006288
 **** Fit       0.005954
 **** Fit       0.005571
 **** Fit       0.002524
 **** Fit       0.003291
 **** Fit       0.004144
 **** Fit       0.005024
 **** Fit       0.005823
 **** Fit       0.006409
 **** Fit       0.006690
 **** Fit       0.006659
 **** Fit       0.006394
 **** Fit       0.006004
 **** Fit       0.005579
 **** Fit       0.005172
 **** Fit       0.001981
 **** Fit       0.002610
 **** Fit       0.003342
 **** Fit       0.004167
 **** Fit       0.005033
 **** Fit       0.005832
 **** Fit       0.006420
 **** Fit       0.006688
 **** Fit       0.006628
 **** Fit       0.006329
 **** Fit       0.005912
 **** Fit       0.005476
 **** Fit       0.005072
 **** Fit       0.002175
 **** Fit       0.002756
 **** Fit       0.003419
 **** Fit       0.004165
 **** Fit       0.004957
 **** Fit       0.005699
 **** Fit       0.006250
 **** Fit       0.006495
 **** Fit       0.006421
 **** Fit       0.006116
 **** Fit       0.005706
 **** Fit       0.005288
 **** Fit       0.004910
 **** Fit       0.001994
 **** Fit       0.002491
 **** Fit       0.003028
 **** Fit       0.003609
 **** Fit       0.004242
 **** Fit       0.004910
 **** Fit       0.005542
 **** Fit       0.006014
 **** Fit       0.006215
 **** Fit       0.006128
 **** Fit       0.005831
 **** Fit       0.005444
 **** Fit       0.005060
 **** Fit       0.004720
 **** Fit       0.001954
 **** Fit       0.002448
 **** Fit       0.002962
 **** Fit       0.003478
 **** Fit       0.003988
 **** Fit       0.004499
 **** Fit       0.005014
 **** Fit       0.005494
 **** Fit       0.005844
 **** Fit       0.005970
 **** Fit       0.005849
 **** Fit       0.005553
 **** Fit       0.005188
 **** Fit       0.004838
 **** Fit       0.004536
 **** Fit       0.004282
 **** Fit       0.002449
 **** Fit       0.003007
 **** Fit       0.003573
 **** Fit       0.004105
 **** Fit       0.004573
 **** Fit       0.004970
 **** Fit       0.005314
 **** Fit       0.005604
 **** Fit       0.005791
 **** Fit       0.005804
 **** Fit       0.005626
 **** Fit       0.005316
 **** Fit       0.004968
 **** Fit       0.004649
 **** Fit       0.004380
 **** Fit       0.004155
 **** Fit       0.002382
 **** Fit       0.002974
 **** Fit       0.003612
 **** Fit       0.004251
 **** Fit       0.004828
 **** Fit       0.005280
 **** Fit       0.005576
 **** Fit       0.005737
 **** Fit       0.005806
 **** Fit       0.005793
 **** Fit       0.005668
 **** Fit       0.005421
 **** Fit       0.005101
 **** Fit       0.004775
 **** Fit       0.004488
 **** Fit       0.004250
 **** Fit       0.004048
 **** Fit       0.003866
 **** Fit       0.002807
 **** Fit       0.003462
 **** Fit       0.004168
 **** Fit       0.004873
 **** Fit       0.005493
 **** Fit       0.005935
 **** Fit       0.006140
 **** Fit       0.006125
 **** Fit       0.005974
 **** Fit       0.005756
 **** Fit       0.005493
 **** Fit       0.005189
 **** Fit       0.004873
 **** Fit       0.004583
 **** Fit       0.004337
 **** Fit       0.004131
 **** Fit       0.003950
 **** Fit       0.003781
 **** Fit       0.003158
 **** Fit       0.003846
 **** Fit       0.004585
 **** Fit       0.005316
 **** Fit       0.005942
 **** Fit       0.006355
 **** Fit       0.006477
 **** Fit       0.006325
 **** Fit       0.006002
 **** Fit       0.005624
 **** Fit       0.005255
 **** Fit       0.004919
 **** Fit       0.004624
 **** Fit       0.004379
 **** Fit       0.004178
 **** Fit       0.004005
 **** Fit       0.003846
 **** Fit       0.003690
 **** Fit       0.004087
 **** Fit       0.004809
 **** Fit       0.005508
 **** Fit       0.006090
 **** Fit       0.006445
 **** Fit       0.006498
 **** Fit       0.006266
 **** Fit       0.005854
 **** Fit       0.005395
 **** Fit       0.004976
 **** Fit       0.004633
 **** Fit       0.004367
 **** Fit       0.004165
 **** Fit       0.004004
 **** Fit       0.003863
 **** Fit       0.003726
 **** Fit       0.003586
 **** Fit       0.004176
 **** Fit       0.004837
 **** Fit       0.005459
 **** Fit       0.005956
 **** Fit       0.006236
 **** Fit       0.006240
 **** Fit       0.005985
 **** Fit       0.005565
 **** Fit       0.005102
 **** Fit       0.004687
 **** Fit       0.004361
 **** Fit       0.004123
 **** Fit       0.003953
 **** Fit       0.003822
 **** Fit       0.003706
 **** Fit       0.003589
 **** Fit       0.004135
 **** Fit       0.004710
 **** Fit       0.005231
 **** Fit       0.005631
 **** Fit       0.005838
 **** Fit       0.005813
 **** Fit       0.005574
 **** Fit       0.005198
 **** Fit       0.004783
 **** Fit       0.004409
 **** Fit       0.004114
 **** Fit       0.003902
 **** Fit       0.003753
 **** Fit       0.003641
 **** Fit       0.003543
 **** Fit       0.004483
 **** Fit       0.004904
 **** Fit       0.005212
 **** Fit       0.005360
 **** Fit       0.005325
 **** Fit       0.005123
 **** Fit       0.004813
 **** Fit       0.004467
 **** Fit       0.004149
 **** Fit       0.003893
 **** Fit       0.003705
 **** Fit       0.003571
 **** Fit       0.003470
 **** Fit       0.004539
 **** Fit       0.004775
 **** Fit       0.004881
 **** Fit       0.004846
 **** Fit       0.004686
 **** Fit       0.004443
 **** Fit       0.004168
 **** Fit       0.004572
 **** Fit       0.004808
 **** Fit       0.003994
 **** Fit       0.004491
 **** Fit       0.004875
 **** Fit       0.005113
 **** Fit       0.005200
 **** Fit       0.005154
 **** Fit       0.003587
 **** Fit       0.004182
 **** Fit       0.004708
 **** Fit       0.005108
 **** Fit       0.005344
 **** Fit       0.005408
 **** Fit       0.005327
 **** Fit       0.005144
 **** Fit       0.003078
 **** Fit       0.003693
 **** Fit       0.004299
 **** Fit       0.004836
 **** Fit       0.005242
 **** Fit       0.005470
 **** Fit       0.005513
 **** Fit       0.005403
 **** Fit       0.005191
 **** Fit       0.004928
 **** Fit       0.003167
 **** Fit       0.003759
 **** Fit       0.004347
 **** Fit       0.004871
 **** Fit       0.005264
 **** Fit       0.005478
 **** Fit       0.005503
 **** Fit       0.005374
 **** Fit       0.005148
 **** Fit       0.004876
 **** Fit       0.003275
 **** Fit       0.003818
 **** Fit       0.004357
 **** Fit       0.004838
 **** Fit       0.005199
 **** Fit       0.005388
 **** Fit       0.005397
 **** Fit       0.005259
 **** Fit       0.005031
 **** Fit       0.004765
 **** Fit       0.002978
 **** Fit       0.003446
 **** Fit       0.003921
 **** Fit       0.004384
 **** Fit       0.004796
 **** Fit       0.005100
 **** Fit       0.005251
 **** Fit       0.005239
 **** Fit       0.005095
 **** Fit       0.004871
 **** Fit       0.004619
 **** Fit       0.002862
 **** Fit       0.003292
 **** Fit       0.003709
 **** Fit       0.004108
 **** Fit       0.004479
 **** Fit       0.004798
 **** Fit       0.005024
 **** Fit       0.005119
 **** Fit       0.005075
 **** Fit       0.004919
 **** Fit       0.004701
 **** Fit       0.004464
 **** Fit       0.002820
 **** Fit       0.003269
 **** Fit       0.003691
 **** Fit       0.004067
 **** Fit       0.004389
 **** Fit       0.004657
 **** Fit       0.004865
 **** Fit       0.004992
 **** Fit       0.005014
 **** Fit       0.004925
 **** Fit       0.004752
 **** Fit       0.004537
 **** Fit       0.004315
 **** Fit       0.003229
 **** Fit       0.003703
 **** Fit       0.004127
 **** Fit       0.004471
 **** Fit       0.004721
 **** Fit       0.004883
 **** Fit       0.004969
 **** Fit       0.004984
 **** Fit       0.004921
 **** Fit       0.004783
 **** Fit       0.004592
 **** Fit       0.004381
 **** Fit       0.004175
 **** Fit       0.003985
 **** Fit       0.003090
 **** Fit       0.003605
 **** Fit       0.004099
 **** Fit       0.004526
 **** Fit       0.004842
 **** Fit       0.005026
 **** Fit       0.005086
 **** Fit       0.005054
 **** Fit       0.004958
 **** Fit       0.004813
 **** Fit       0.004630
 **** Fit       0.004428
 **** Fit       0.004226
 **** Fit       0.004038
 **** Fit       0.003868
 **** Fit       0.003896
 **** Fit       0.004393
 **** Fit       0.004809
 **** Fit       0.005093
 **** Fit       0.005219
 **** Fit       0.005197
 **** Fit       0.005069
 **** Fit       0.004883
 **** Fit       0.004673
 **** Fit       0.004459
 **** Fit       0.004253
 **** Fit       0.004066
 **** Fit       0.003899
 **** Fit       0.003749
 **** Fit       0.004067
 **** Fit       0.004544
 **** Fit       0.004931
 **** Fit       0.005177
 **** Fit       0.005255
 **** Fit       0.005176
 **** Fit       0.004989
 **** Fit       0.004749
 **** Fit       0.004501
 **** Fit       0.004272
 **** Fit       0.004072
 **** Fit       0.003902
 **** Fit       0.003755
 **** Fit       0.004114
 **** Fit       0.004548
 **** Fit       0.004889
 **** Fit       0.005093
 **** Fit       0.005135
 **** Fit       0.005029
 **** Fit       0.004820
 **** Fit       0.004563
 **** Fit       0.004307
 **** Fit       0.004080
 **** Fit       0.003891
 **** Fit       0.003737
 **** Fit       0.004431
 **** Fit       0.004719
 **** Fit       0.004882
 **** Fit       0.004901
 **** Fit       0.004791
 **** Fit       0.004588
 **** Fit       0.004344
 **** Fit       0.004103
 **** Fit       0.004469
 **** Fit       0.004596
 **** Fit       0.004604
 **** Fit       0.004503
 **** Fit       0.004325
 **** Fit       0.004110
 **** Fit       0.004349
 **** Fit       0.004541
 **** Fit       0.003771
 **** Fit       0.004157
 **** Fit       0.004455
 **** Fit       0.004639
 **** Fit       0.004705
 **** Fit       0.003842
 **** Fit       0.004213
 **** Fit       0.004497
 **** Fit       0.004667
 **** Fit       0.004719
 **** Fit       0.004667
 **** Fit       0.003501
 **** Fit       0.003893
 **** Fit       0.004233
 **** Fit       0.004490
 **** Fit       0.004638
 **** Fit       0.004674
 **** Fit       0.004611
 **** Fit       0.003950
 **** Fit       0.004244
 **** Fit       0.004460
 **** Fit       0.004578
 **** Fit       0.004593
 **** Fit       0.004519
 **** Fit       0.003429
 **** Fit       0.003749
 **** Fit       0.004035
 **** Fit       0.004269
 **** Fit       0.004433
 **** Fit       0.004511
 **** Fit       0.004498
 **** Fit       0.004411
 **** Fit       0.003351
 **** Fit       0.003662
 **** Fit       0.003931
 **** Fit       0.004152
 **** Fit       0.004318
 **** Fit       0.004419
 **** Fit       0.004447
 **** Fit       0.003294
 **** Fit       0.003629
 **** Fit       0.003911
 **** Fit       0.004130
 **** Fit       0.004284
 **** Fit       0.004377
 **** Fit       0.004410
 **** Fit       0.003555
 **** Fit       0.003880
 **** Fit       0.004134
 **** Fit       0.004305
 **** Fit       0.004397
 **** Fit       0.004420
 **** Fit       0.004387
 **** Fit       0.004309
 **** Fit       0.003754
 **** Fit       0.004063
 **** Fit       0.004288
 **** Fit       0.004418
 **** Fit       0.004456
 **** Fit       0.004420
 **** Fit       0.004333
 **** Fit       0.004214
 **** Fit       0.004152
 **** Fit       0.004348
 **** Fit       0.004443
 **** Fit       0.004441
 **** Fit       0.004364
 **** Fit       0.004241
 **** Fit       0.004142
 **** Fit       0.004309
 **** Fit       0.004376
 **** Fit       0.004349
 **** Fit       0.004251
 **** Fit       0.004233
 -----------------------------------------------------------------
 Leave Link  602 at Thu Apr 21 16:51:43 2022, MaxMem=   104857600 cpu:               2.2 elap:               2.2
 (Enter /opt/ohpc/pub/libs/gaussian/g16-A.03/haswell/g16/l9999.exe)

 Test job not archived.
 1\1\GINC-CASCADEB060\SP\RB3LYP\6-311++G(d,p)\C8H15N1O2\MNG228\21-Apr-2
 022\0\\#P B3LYP/6-311++G(d,p) Geom=Allcheck SCF=Tight EmpiricalDispers
 ion=GD3BJ Pop=CHELPG SP IOp(6/33=2)\\DMAEMA geo opt\\0,1\H,0,1.1023428
 608,-1.4856195328,-1.0058581052\C,0,2.1824894045,-1.4861134725,-0.9492
 64488\H,0,2.7305789923,-1.0276123242,-1.7647694076\C,0,2.8261321123,-2
 .0328929941,0.0857962926\C,0,2.0774749428,-2.6636605195,1.2144963417\O
 ,0,2.6168961734,-3.1664599815,2.1751436627\O,0,0.7388055882,-2.6172539
 082,1.0602220303\C,0,-0.0496516651,-3.1952920189,2.1259101411\H,0,0.25
 75312478,-4.2353804254,2.2533725744\H,0,0.1517699729,-2.6571132192,3.0
 539536523\C,0,-1.5198295205,-3.1159653082,1.7602221526\H,0,-1.65220173
 51,-3.4667736905,0.719026904\H,0,-2.0387791819,-3.8319539068,2.4040680
 998\N,0,-2.1330678305,-1.8104356124,1.982153779\C,0,-1.6833338114,-0.7
 918950259,1.0386650803\H,0,-1.933779739,-1.0493628159,-0.0076836496\H,
 0,-2.1648894672,0.1578354244,1.2810465211\H,0,-0.605479927,-0.65901281
 04,1.1045386737\C,0,-3.5865433168,-1.9109762287,1.9776268352\H,0,-3.99
 14202956,-2.238671518,1.0017205139\H,0,-3.9142222406,-2.6217348937,2.7
 397562362\H,0,-4.0207972816,-0.9368306619,2.2125103598\C,0,4.322089632
 5,-2.0671408943,0.2201675439\H,0,4.7973161493,-1.5885014274,-0.6370093
 469\H,0,4.6412329594,-1.5591707209,1.133815287\H,0,4.6810359761,-3.096
 7115128,0.2967723155\\Version=ES64L-G16RevA.03\State=1-A\HF=-519.25373
 77\RMSD=4.174e-09\Dipole=-0.5775263,0.1912023,-0.6838876\Quadrupole=1.
 6825832,-0.0129495,-1.6696337,3.1781463,-4.5643822,-1.1038677\PG=C01 [
 X(C8H15N1O2)]\\@


 TERENCE, THIS IS STUPID STUFF:
 YOU EAT YOUR VICTUALS FAST ENOUGH;
 THERE CAN'T BE MUCH AMISS, 'TIS CLEAR
 TO SEE THE RATE YOU DRINK YOUR BEER.
 BUT OH, GOOD LORD, THE VERSE YOU MAKE,
 IT GIVES A CHAP THE BELLY-ACHE.
 THE COW, THE OLD COW, SHE IS DEAD;
 IT SLEEPS WELL, THE HORNED HEAD:
 WE POOR LADS, 'TIS OUR TURN NOW
 TO HEAR SUCH TUNES AS KILLED THE COW.
 PRETTY FRIENDSHIP 'TIS TO RHYME
 YOUR FRIENDS TO DEATH BEFORE THEIR TIME.
 MOPING, MELANCHOLY MAD:
 COME PIPE A TUNE TO DANCE TO, LAD.

     -- A. E. HOUSMAN
 Job cpu time:       0 days  0 hours  5 minutes 36.9 seconds.
 Elapsed time:       0 days  0 hours  5 minutes 38.3 seconds.
 File lengths (MBytes):  RWF=    304 Int=      0 D2E=      0 Chk=     32 Scr=     32
 Normal termination of Gaussian 16 at Thu Apr 21 16:51:43 2022.
