 Entering Gaussian System, Link 0=g16
 Initial command:
 /opt/ohpc/pub/libs/gaussian/g16-A.03/haswell/g16/l1.exe "g16_scratch/Gau-102095.inp" -scrdir="g16_scratch/"
 Entering Link 1 = /opt/ohpc/pub/libs/gaussian/g16-A.03/haswell/g16/l1.exe PID=    102096.
  
 Copyright (c) 1988,1990,1992,1993,1995,1998,2003,2009,2016,
            Gaussian, Inc.  All Rights Reserved.
  
 This is part of the Gaussian(R) 16 program.  It is based on
 the Gaussian(R) 09 system (copyright 2009, Gaussian, Inc.),
 the Gaussian(R) 03 system (copyright 2003, Gaussian, Inc.),
 the Gaussian(R) 98 system (copyright 1998, Gaussian, Inc.),
 the Gaussian(R) 94 system (copyright 1995, Gaussian, Inc.),
 the Gaussian 92(TM) system (copyright 1992, Gaussian, Inc.),
 the Gaussian 90(TM) system (copyright 1990, Gaussian, Inc.),
 the Gaussian 88(TM) system (copyright 1988, Gaussian, Inc.),
 the Gaussian 86(TM) system (copyright 1986, Carnegie Mellon
 University), and the Gaussian 82(TM) system (copyright 1983,
 Carnegie Mellon University). Gaussian is a federally registered
 trademark of Gaussian, Inc.
  
 This software contains proprietary and confidential information,
 including trade secrets, belonging to Gaussian, Inc.
  
 This software is provided under written license and may be
 used, copied, transmitted, or stored only in accord with that
 written license.
  
 The following legend is applicable only to US Government
 contracts under FAR:
  
                    RESTRICTED RIGHTS LEGEND
  
 Use, reproduction and disclosure by the US Government is
 subject to restrictions as set forth in subparagraphs (a)
 and (c) of the Commercial Computer Software - Restricted
 Rights clause in FAR 52.227-19.
  
 Gaussian, Inc.
 340 Quinnipiac St., Bldg. 40, Wallingford CT 06492
  
  
 ---------------------------------------------------------------
 Warning -- This program may not be used in any manner that
 competes with the business of Gaussian, Inc. or will provide
 assistance to any competitor of Gaussian, Inc.  The licensee
 of this program is prohibited from giving any competitor of
 Gaussian, Inc. access to this program.  By using this program,
 the user acknowledges that Gaussian, Inc. is engaged in the
 business of creating and licensing software in the field of
 computational chemistry and represents and warrants to the
 licensee that it is not a competitor of Gaussian, Inc. and that
 it will not use this program in any manner prohibited above.
 ---------------------------------------------------------------
  

 Cite this work as:
 Gaussian 16, Revision A.03,
 M. J. Frisch, G. W. Trucks, H. B. Schlegel, G. E. Scuseria, 
 M. A. Robb, J. R. Cheeseman, G. Scalmani, V. Barone, 
 G. A. Petersson, H. Nakatsuji, X. Li, M. Caricato, A. V. Marenich, 
 J. Bloino, B. G. Janesko, R. Gomperts, B. Mennucci, H. P. Hratchian, 
 J. V. Ortiz, A. F. Izmaylov, J. L. Sonnenberg, D. Williams-Young, 
 F. Ding, F. Lipparini, F. Egidi, J. Goings, B. Peng, A. Petrone, 
 T. Henderson, D. Ranasinghe, V. G. Zakrzewski, J. Gao, N. Rega, 
 G. Zheng, W. Liang, M. Hada, M. Ehara, K. Toyota, R. Fukuda, 
 J. Hasegawa, M. Ishida, T. Nakajima, Y. Honda, O. Kitao, H. Nakai, 
 T. Vreven, K. Throssell, J. A. Montgomery, Jr., J. E. Peralta, 
 F. Ogliaro, M. J. Bearpark, J. J. Heyd, E. N. Brothers, K. N. Kudin, 
 V. N. Staroverov, T. A. Keith, R. Kobayashi, J. Normand, 
 K. Raghavachari, A. P. Rendell, J. C. Burant, S. S. Iyengar, 
 J. Tomasi, M. Cossi, J. M. Millam, M. Klene, C. Adamo, R. Cammi, 
 J. W. Ochterski, R. L. Martin, K. Morokuma, O. Farkas, 
 J. B. Foresman, and D. J. Fox, Gaussian, Inc., Wallingford CT, 2016.
 
 ******************************************
 Gaussian 16:  ES64L-G16RevA.03 25-Dec-2016
                21-Apr-2022 
 ******************************************
 %Mem=192GB
 %NProcShared=48
 Will use up to   48 processors via shared memory.
 %Chk=MAA1-VP1-3.chk
 ---------------------------------------------------------------------
 #n B3LYP/6-311++G(d,p) Opt freq EmpiricalDispersion=GD3BJ IOp(6/33=2)
 ---------------------------------------------------------------------
 1/18=20,19=15,26=3,38=1/1,3;
 2/9=110,12=2,17=6,18=5,40=1/2;
 3/5=4,6=6,7=1111,11=2,25=1,30=1,71=1,74=-5,124=41/1,2,3;
 4//1;
 5/5=2,38=5/2;
 6/7=2,8=2,9=2,10=2,28=1,33=2/1;
 7//1,2,3,16;
 1/18=20,19=15,26=3/3(2);
 2/9=110/2;
 99//99;
 2/9=110/2;
 3/5=4,6=6,7=1111,11=2,25=1,30=1,71=1,74=-5,124=41/1,2,3;
 4/5=5,16=3,69=1/1;
 5/5=2,38=5/2;
 7//1,2,3,16;
 1/18=20,19=15,26=3/3(-5);
 2/9=110/2;
 6/7=2,8=2,9=2,10=2,19=2,28=1,33=2/1;
 99/9=1/99;
 ----------------
 MAA1-VP1 geo opt
 ----------------
 Symbolic Z-matrix:
 Charge =  0 Multiplicity = 1
 C                     9.386     11.557    11.916 
 C                     8.375     12.54     12.413 
 C                     8.337     13.792    11.922 
 C                     7.52      12.112    13.512 
 O                     7.6       11.062    14.038 
 O                     6.615     12.931    14.047 
 H                     10.156    11.981    11.271 
 H                     8.782     10.803    11.412 
 H                     9.956     11.054    12.697 
 H                     9.05      14.052    11.153 
 H                     7.626     14.534    12.254 
 H                     6.597     13.582    13.363 
 C                     2.135     19.529    11.496 
 C                     2.438     18.439    10.851 
 C                     3.323     17.421    11.414 
 C                     3.953     17.584    12.686 
 C                     4.66      16.541    13.283 
 N                     5.021     15.432    12.603 
 C                     4.439     15.303    11.418 
 C                     3.567     16.192    10.796 
 H                     1.465     20.268    11.083 
 H                     2.707     19.857    12.351 
 H                     1.855     18.328    9.948 
 H                     3.687     18.432    13.3 
 H                     5.09      16.584    14.273 
 H                     4.756     14.394    10.929 
 H                     3.273     15.912    9.795 
 
 Add virtual bond connecting atoms N18        and H12        Dist= 4.81D+00.

 GradGradGradGradGradGradGradGradGradGradGradGradGradGradGradGradGradGrad
 Berny optimization.
 Initialization pass.
                           ----------------------------
                           !    Initial Parameters    !
                           ! (Angstroms and Degrees)  !
 --------------------------                            --------------------------
 ! Name  Definition              Value          Derivative Info.                !
 --------------------------------------------------------------------------------
 ! R1    R(1,2)                  1.4951         estimate D2E/DX2                !
 ! R2    R(1,7)                  1.0903         estimate D2E/DX2                !
 ! R3    R(1,8)                  1.0897         estimate D2E/DX2                !
 ! R4    R(1,9)                  1.0899         estimate D2E/DX2                !
 ! R5    R(2,3)                  1.3454         estimate D2E/DX2                !
 ! R6    R(2,4)                  1.4567         estimate D2E/DX2                !
 ! R7    R(3,10)                 1.0804         estimate D2E/DX2                !
 ! R8    R(3,11)                 1.08           estimate D2E/DX2                !
 ! R9    R(4,5)                  1.1771         estimate D2E/DX2                !
 ! R10   R(4,6)                  1.3327         estimate D2E/DX2                !
 ! R11   R(6,12)                 0.9444         estimate D2E/DX2                !
 ! R12   R(12,18)                2.5463         estimate D2E/DX2                !
 ! R13   R(13,14)                1.3023         estimate D2E/DX2                !
 ! R14   R(13,21)                1.0796         estimate D2E/DX2                !
 ! R15   R(13,22)                1.0797         estimate D2E/DX2                !
 ! R16   R(14,15)                1.4617         estimate D2E/DX2                !
 ! R17   R(14,23)                1.0806         estimate D2E/DX2                !
 ! R18   R(15,16)                1.4288         estimate D2E/DX2                !
 ! R19   R(15,20)                1.3971         estimate D2E/DX2                !
 ! R20   R(16,17)                1.3943         estimate D2E/DX2                !
 ! R21   R(16,24)                1.0802         estimate D2E/DX2                !
 ! R22   R(17,18)                1.35           estimate D2E/DX2                !
 ! R23   R(17,25)                1.0802         estimate D2E/DX2                !
 ! R24   R(18,19)                1.3265         estimate D2E/DX2                !
 ! R25   R(19,20)                1.392          estimate D2E/DX2                !
 ! R26   R(19,26)                1.0798         estimate D2E/DX2                !
 ! R27   R(20,27)                1.0802         estimate D2E/DX2                !
 ! A1    A(2,1,7)              114.7416         estimate D2E/DX2                !
 ! A2    A(2,1,8)              103.5254         estimate D2E/DX2                !
 ! A3    A(2,1,9)              114.7632         estimate D2E/DX2                !
 ! A4    A(7,1,8)              112.7643         estimate D2E/DX2                !
 ! A5    A(7,1,9)              103.5356         estimate D2E/DX2                !
 ! A6    A(8,1,9)              107.577          estimate D2E/DX2                !
 ! A7    A(1,2,3)              120.6386         estimate D2E/DX2                !
 ! A8    A(1,2,4)              117.0326         estimate D2E/DX2                !
 ! A9    A(3,2,4)              122.1528         estimate D2E/DX2                !
 ! A10   A(2,3,10)             117.7142         estimate D2E/DX2                !
 ! A11   A(2,3,11)             123.078          estimate D2E/DX2                !
 ! A12   A(10,3,11)            119.2049         estimate D2E/DX2                !
 ! A13   A(2,4,5)              124.009          estimate D2E/DX2                !
 ! A14   A(2,4,6)              121.3918         estimate D2E/DX2                !
 ! A15   A(5,4,6)              114.5166         estimate D2E/DX2                !
 ! A16   A(4,6,12)              98.3841         estimate D2E/DX2                !
 ! A17   A(6,12,18)            136.7815         estimate D2E/DX2                !
 ! A18   A(14,13,21)           121.8599         estimate D2E/DX2                !
 ! A19   A(14,13,22)           121.5476         estimate D2E/DX2                !
 ! A20   A(21,13,22)           115.0716         estimate D2E/DX2                !
 ! A21   A(13,14,15)           122.2106         estimate D2E/DX2                !
 ! A22   A(13,14,23)           111.9838         estimate D2E/DX2                !
 ! A23   A(15,14,23)           125.2402         estimate D2E/DX2                !
 ! A24   A(14,15,16)           122.0338         estimate D2E/DX2                !
 ! A25   A(14,15,20)           123.2314         estimate D2E/DX2                !
 ! A26   A(16,15,20)           114.6547         estimate D2E/DX2                !
 ! A27   A(15,16,17)           121.2935         estimate D2E/DX2                !
 ! A28   A(15,16,24)           119.1443         estimate D2E/DX2                !
 ! A29   A(17,16,24)           117.9514         estimate D2E/DX2                !
 ! A30   A(16,17,18)           122.3037         estimate D2E/DX2                !
 ! A31   A(16,17,25)           124.3662         estimate D2E/DX2                !
 ! A32   A(18,17,25)           112.8228         estimate D2E/DX2                !
 ! A33   A(12,18,17)           127.7329         estimate D2E/DX2                !
 ! A34   A(12,18,19)           117.8741         estimate D2E/DX2                !
 ! A35   A(17,18,19)           114.3636         estimate D2E/DX2                !
 ! A36   A(18,19,20)           127.7291         estimate D2E/DX2                !
 ! A37   A(18,19,26)           110.9546         estimate D2E/DX2                !
 ! A38   A(20,19,26)           121.279          estimate D2E/DX2                !
 ! A39   A(15,20,19)           118.2658         estimate D2E/DX2                !
 ! A40   A(15,20,27)           126.1852         estimate D2E/DX2                !
 ! A41   A(19,20,27)           114.7738         estimate D2E/DX2                !
 ! D1    D(7,1,2,3)              9.2992         estimate D2E/DX2                !
 ! D2    D(7,1,2,4)           -165.9805         estimate D2E/DX2                !
 ! D3    D(8,1,2,3)           -114.003          estimate D2E/DX2                !
 ! D4    D(8,1,2,4)             70.7173         estimate D2E/DX2                !
 ! D5    D(9,1,2,3)            129.0597         estimate D2E/DX2                !
 ! D6    D(9,1,2,4)            -46.22           estimate D2E/DX2                !
 ! D7    D(1,2,3,10)             0.7922         estimate D2E/DX2                !
 ! D8    D(1,2,3,11)          -179.8319         estimate D2E/DX2                !
 ! D9    D(4,2,3,10)           175.8253         estimate D2E/DX2                !
 ! D10   D(4,2,3,11)            -4.7987         estimate D2E/DX2                !
 ! D11   D(1,2,4,5)              1.5944         estimate D2E/DX2                !
 ! D12   D(1,2,4,6)            178.1068         estimate D2E/DX2                !
 ! D13   D(3,2,4,5)           -173.6084         estimate D2E/DX2                !
 ! D14   D(3,2,4,6)              2.904          estimate D2E/DX2                !
 ! D15   D(2,4,6,12)            15.5288         estimate D2E/DX2                !
 ! D16   D(5,4,6,12)          -167.6484         estimate D2E/DX2                !
 ! D17   D(4,6,12,18)          161.0436         estimate D2E/DX2                !
 ! D18   D(6,12,18,17)          63.76           estimate D2E/DX2                !
 ! D19   D(6,12,18,19)        -114.1438         estimate D2E/DX2                !
 ! D20   D(21,13,14,15)       -178.7517         estimate D2E/DX2                !
 ! D21   D(21,13,14,23)         -6.9572         estimate D2E/DX2                !
 ! D22   D(22,13,14,15)         16.0103         estimate D2E/DX2                !
 ! D23   D(22,13,14,23)       -172.1952         estimate D2E/DX2                !
 ! D24   D(13,14,15,16)         -2.5398         estimate D2E/DX2                !
 ! D25   D(13,14,15,20)        174.0311         estimate D2E/DX2                !
 ! D26   D(23,14,15,16)       -173.2143         estimate D2E/DX2                !
 ! D27   D(23,14,15,20)          3.3566         estimate D2E/DX2                !
 ! D28   D(14,15,16,17)        172.0209         estimate D2E/DX2                !
 ! D29   D(14,15,16,24)          6.7862         estimate D2E/DX2                !
 ! D30   D(20,15,16,17)         -4.8234         estimate D2E/DX2                !
 ! D31   D(20,15,16,24)       -170.0581         estimate D2E/DX2                !
 ! D32   D(14,15,20,19)        179.4095         estimate D2E/DX2                !
 ! D33   D(14,15,20,27)         10.0591         estimate D2E/DX2                !
 ! D34   D(16,15,20,19)         -3.7888         estimate D2E/DX2                !
 ! D35   D(16,15,20,27)       -173.1392         estimate D2E/DX2                !
 ! D36   D(15,16,17,18)         13.6685         estimate D2E/DX2                !
 ! D37   D(15,16,17,25)       -175.095          estimate D2E/DX2                !
 ! D38   D(24,16,17,18)        179.0732         estimate D2E/DX2                !
 ! D39   D(24,16,17,25)         -9.6903         estimate D2E/DX2                !
 ! D40   D(16,17,18,12)        169.8735         estimate D2E/DX2                !
 ! D41   D(16,17,18,19)        -12.1606         estimate D2E/DX2                !
 ! D42   D(25,17,18,12)         -2.2844         estimate D2E/DX2                !
 ! D43   D(25,17,18,19)        175.6816         estimate D2E/DX2                !
 ! D44   D(12,18,19,20)       -178.8484         estimate D2E/DX2                !
 ! D45   D(12,18,19,26)         -1.0734         estimate D2E/DX2                !
 ! D46   D(17,18,19,20)          2.9714         estimate D2E/DX2                !
 ! D47   D(17,18,19,26)       -179.2536         estimate D2E/DX2                !
 ! D48   D(18,19,20,15)          5.0811         estimate D2E/DX2                !
 ! D49   D(18,19,20,27)        175.626          estimate D2E/DX2                !
 ! D50   D(26,19,20,15)       -172.4875         estimate D2E/DX2                !
 ! D51   D(26,19,20,27)         -1.9426         estimate D2E/DX2                !
 --------------------------------------------------------------------------------
 Trust Radius=3.00D-01 FncErr=1.00D-07 GrdErr=1.00D-06 EigMax=2.50D+02 EigMin=1.00D-04
 Number of steps in this run=    129 maximum allowed number of steps=    162.
 GradGradGradGradGradGradGradGradGradGradGradGradGradGradGradGradGradGrad

                          Input orientation:                          
 ---------------------------------------------------------------------
 Center     Atomic      Atomic             Coordinates (Angstroms)
 Number     Number       Type             X           Y           Z
 ---------------------------------------------------------------------
      1          6           0        9.386000   11.557000   11.916000
      2          6           0        8.375000   12.540000   12.413000
      3          6           0        8.337000   13.792000   11.922000
      4          6           0        7.520000   12.112000   13.512000
      5          8           0        7.600000   11.062000   14.038000
      6          8           0        6.615000   12.931000   14.047000
      7          1           0       10.156000   11.981000   11.271000
      8          1           0        8.782000   10.803000   11.412000
      9          1           0        9.956000   11.054000   12.697000
     10          1           0        9.050000   14.052000   11.153000
     11          1           0        7.626000   14.534000   12.254000
     12          1           0        6.597000   13.582000   13.363000
     13          6           0        2.135000   19.529000   11.496000
     14          6           0        2.438000   18.439000   10.851000
     15          6           0        3.323000   17.421000   11.414000
     16          6           0        3.953000   17.584000   12.686000
     17          6           0        4.660000   16.541000   13.283000
     18          7           0        5.021000   15.432000   12.603000
     19          6           0        4.439000   15.303000   11.418000
     20          6           0        3.567000   16.192000   10.796000
     21          1           0        1.465000   20.268000   11.083000
     22          1           0        2.707000   19.857000   12.351000
     23          1           0        1.855000   18.328000    9.948000
     24          1           0        3.687000   18.432000   13.300000
     25          1           0        5.090000   16.584000   14.273000
     26          1           0        4.756000   14.394000   10.929000
     27          1           0        3.273000   15.912000    9.795000
 ---------------------------------------------------------------------
                    Distance matrix (angstroms):
                    1          2          3          4          5
     1  C    0.000000
     2  C    1.495132   0.000000
     3  C    2.468939   1.345373   0.000000
     4  C    2.517379   1.456712   2.453159   0.000000
     5  O    2.817393   2.329321   3.531788   1.177105   0.000000
     6  O    3.755992   2.433195   2.867443   1.332671   2.112692
     7  H    1.090276   2.188288   2.648072   3.462331   3.877368
     8  H    1.089655   2.045683   3.064677   2.777791   2.891380
     9  H    1.089894   2.188244   3.273901   2.778072   2.710919
    10  H    2.630606   2.080714   1.080430   3.416048   4.400662
    11  H    3.474820   2.135958   1.079958   2.731279   3.903603
    12  H    3.738042   2.269262   2.268960   1.742134   2.795002
    13  C   10.784535   9.414064   8.459282   9.384795  10.393175
    14  C    9.837218   8.513872   7.585503   8.540408   9.551091
    15  C    8.449761   7.095412   6.210306   7.085329   8.100308
    16  C    8.150774   6.713460   5.846573   6.583961   7.593747
    17  C    7.003144   5.528664   4.788492   5.277128   6.263630
    18  N    5.877144   4.432728   3.761544   4.253667   5.273269
    19  C    6.225217   4.910834   4.210884   4.905087   5.902745
    20  C    7.523190   6.250493   5.457177   6.296766   7.286464
    21  H   11.803290  10.451746   9.479814  10.444300  11.450794
    22  H   10.662470   9.255731   8.286445   9.192275  10.204873
    23  H   10.316755   9.060219   8.154036   9.134165  10.125605
    24  H    9.036575   7.581542   6.712003   7.394541   8.376939
    25  H    7.020099   5.532157   4.885230   5.146145   6.070240
    26  H    5.519025   4.328595   3.764574   4.418044   5.371819
    27  H    7.799579   6.652422   5.887497   6.803903   7.761989
                    6          7          8          9         10
     6  O    0.000000
     7  H    4.598626   0.000000
     8  H    4.020883   1.815335   0.000000
     9  H    4.062993   1.712543   1.758551   0.000000
    10  H    3.944756   2.350787   3.270307   3.491816   0.000000
    11  H    2.608942   3.726258   3.995705   4.211360   1.863411
    12  H    0.944447   4.427883   4.037755   4.256433   3.334998
    13  C    8.373267  11.016323  10.969628  11.594657   8.827933
    14  C    7.615761  10.072224   9.943317  10.698891   7.940750
    15  C    6.158738   8.735213   8.578963   9.283397   6.649572
    16  C    5.530730   8.477797   8.421655   8.870007   6.387842
    17  C    4.175862   7.419418   7.308637   7.648410   5.477602
    18  N    3.298632   6.328653   6.082043   6.597723   4.498860
    19  C    4.156080   6.613727   6.253934   7.080052   4.785034
    20  C    5.522085   7.834096   7.524427   8.416185   5.896638
    21  H    9.441365  12.010129  11.967997  12.633284   9.806925
    22  H    8.131319  10.894282  10.943595  11.408792   8.681410
    23  H    8.281727  10.532869  10.332098  11.229171   8.456017
    24  H    6.276320   9.358430   9.366174   9.700456   7.249536
    25  H    3.964985   7.474220   7.432102   7.532771   5.641544
    26  H    3.913844   5.924486   5.416387   6.428174   4.313418
    27  H    6.175340   8.062693   7.685418   8.756955   6.219123
                   11         12         13         14         15
    11  H    0.000000
    12  H    1.787464   0.000000
    13  C    7.461613   7.665634   0.000000
    14  C    6.643251   6.870071   1.302280   0.000000
    15  C    5.249398   5.408844   2.421101   1.461683   0.000000
    16  C    4.793751   4.844076   2.916205   2.528532   1.428794
    17  C    3.726130   3.537520   4.300830   3.801883   2.460717
    18  N    2.777450   2.546346   5.132237   4.333987   2.872812
    19  C    3.383375   3.376660   4.813894   3.762976   2.394033
    20  C    4.620629   4.752104   3.698134   2.515288   1.397105
    21  H    8.497524   8.731462   1.079625   2.084657   3.415719
    22  H    7.248469   7.451971   1.079719   2.081606   2.681701
    23  H    7.281244   7.528167   1.979168   1.080564   2.264250
    24  H    5.639525   5.656374   2.620406   2.749118   2.170625
    25  H    3.835382   3.480108   5.011664   4.710012   3.463631
    26  H    3.164194   3.158003   5.793044   4.662750   3.383998
    27  H    5.185959   5.404489   4.155855   2.863231   2.213762
                   16         17         18         19         20
    16  C    0.000000
    17  C    1.394312   0.000000
    18  N    2.403875   1.350038   0.000000
    19  C    2.654615   2.249380   1.326495   0.000000
    20  C    2.378815   2.738908   2.440689   1.391973   0.000000
    21  H    3.995449   5.379457   6.192127   5.797252   4.595057
    22  H    2.613670   3.959632   4.999872   4.960769   4.073064
    23  H    3.528709   4.709949   5.045731   4.241295   2.865754
    24  H    1.080211   2.126711   3.356392   3.728011   3.361847
    25  H    2.193476   1.080208   2.029967   3.196214   3.816113
    26  H    3.729337   3.187498   1.987447   1.079764   2.159679
    27  H    3.408206   3.805989   3.342270   2.089154   1.080202
                   21         22         23         24         25
    21  H    0.000000
    22  H    1.821897   0.000000
    23  H    2.281211   2.972903   0.000000
    24  H    3.636381   1.972720   3.821380   0.000000
    25  H    6.073597   4.481663   5.675596   2.515997   0.000000
    26  H    6.734855   6.005402   4.985431   4.803108   4.011233
    27  H    4.889023   4.734608   2.805564   4.336683   4.879094
                   26         27
    26  H    0.000000
    27  H    2.406152   0.000000
 Stoichiometry    C11H13NO2
 Framework group  C1[X(C11H13NO2)]
 Deg. of freedom    75
 Full point group                 C1      NOp   1
 Largest Abelian subgroup         C1      NOp   1
 Largest concise Abelian subgroup C1      NOp   1
                         Standard orientation:                         
 ---------------------------------------------------------------------
 Center     Atomic      Atomic             Coordinates (Angstroms)
 Number     Number       Type             X           Y           Z
 ---------------------------------------------------------------------
      1          6           0        4.900227    1.369708    0.275297
      2          6           0        3.599405    0.636070    0.346418
      3          6           0        2.560357    1.147504    1.031140
      4          6           0        3.550978   -0.686378   -0.262513
      5          8           0        4.472819   -1.209714   -0.774278
      6          8           0        2.447119   -1.431641   -0.216826
      7          1           0        4.973471    2.233839    0.936064
      8          1           0        4.985453    1.635857   -0.777912
      9          1           0        5.775025    0.774259    0.536138
     10          1           0        2.697787    2.105524    1.511390
     11          1           0        1.604860    0.650485    1.110552
     12          1           0        1.835472   -0.756642    0.032666
     13          6           0       -5.789163   -0.054373    0.398320
     14          6           0       -4.891471    0.603345   -0.278060
     15          6           0       -3.466772    0.287503   -0.194429
     16          6           0       -2.965609   -0.728666    0.676025
     17          6           0       -1.631631   -1.131373    0.626656
     18          7           0       -0.688229   -0.423745   -0.030502
     19          6           0       -1.168940    0.525396   -0.822739
     20          6           0       -2.499244    0.895704   -0.998098
     21          1           0       -6.841936    0.170745    0.317201
     22          1           0       -5.518781   -0.683298    1.233269
     23          1           0       -5.338521    1.284232   -0.988101
     24          1           0       -3.664588   -1.356361    1.209207
     25          1           0       -1.218186   -1.944025    1.205887
     26          1           0       -0.370467    1.046582   -1.329390
     27          1           0       -2.650313    1.749219   -1.642712
 ---------------------------------------------------------------------
 Rotational constants (GHZ):           2.0377601           0.2054976           0.1976089
 Standard basis: 6-311++G(d,p) (5D, 7F)
 There are   413 symmetry adapted cartesian basis functions of A   symmetry.
 There are   399 symmetry adapted basis functions of A   symmetry.
   399 basis functions,   621 primitive gaussians,   413 cartesian basis functions
    51 alpha electrons       51 beta electrons
       nuclear repulsion energy       776.8474469829 Hartrees.
 NAtoms=   27 NActive=   27 NUniq=   27 SFac= 1.00D+00 NAtFMM=   60 NAOKFM=F Big=F
 Integral buffers will be    131072 words long.
 Raffenetti 2 integral format.
 Two-electron integral symmetry is turned on.
 Nuclear repulsion after empirical dispersion term =      776.8025015648 Hartrees.
 One-electron integrals computed using PRISM.
 NBasis=   399 RedAO= T EigKep=  2.03D-06  NBF=   399
 NBsUse=   399 1.00D-06 EigRej= -1.00D+00 NBFU=   399
 ExpMin= 3.60D-02 ExpMax= 8.59D+03 ExpMxC= 1.30D+03 IAcc=3 IRadAn=         5 AccDes= 0.00D+00
 Harris functional with IExCor=  402 and IRadAn=       5 diagonalized for initial guess.
 HarFok:  IExCor=  402 AccDes= 0.00D+00 IRadAn=         5 IDoV= 1 UseB2=F ITyADJ=14
 ICtDFT=  3500011 ScaDFX=  1.000000  1.000000  1.000000  1.000000
 FoFCou: FMM=F IPFlag=           0 FMFlag=      100000 FMFlg1=           0
         NFxFlg=           0 DoJE=T BraDBF=F KetDBF=T FulRan=T
         wScrn=  0.000000 ICntrl=       500 IOpCl=  0 I1Cent=   200000004 NGrid=           0
         NMat0=    1 NMatS0=      1 NMatT0=    0 NMatD0=    1 NMtDS0=    0 NMtDT0=    0
 Petite list used in FoFCou.
 Requested convergence on RMS density matrix=1.00D-08 within 128 cycles.
 Requested convergence on MAX density matrix=1.00D-06.
 Requested convergence on             energy=1.00D-06.
 No special actions if energy rises.
 SCF Done:  E(RB3LYP) =  -632.362372835     A.U. after   15 cycles
            NFock= 15  Conv=0.50D-08     -V/T= 2.0033
 SCF density gives NOpUse=  1 NOpAll=  1.

 **********************************************************************

            Population analysis using the SCF density.

 **********************************************************************

 Orbital symmetries:
 BldTbl:  Degeneracy threshold= 1.00D-02
       Occupied  (A) (A) (A) (A) (A) (A) (A) (A) (A) (A) (A) (A)
                 (A) (A) (A) (A) (A) (A) (A) (A) (A) (A) (A) (A)
                 (A) (A) (A) (A) (A) (A) (A) (A) (A) (A) (A) (A)
                 (A) (A) (A) (A) (A) (A) (A) (A) (A) (A) (A) (A)
                 (A) (A) (A)
       Virtual   (A) (A) (A) (A) (A) (A) (A) (A) (A) (A) (A) (A)
                 (A) (A) (A) (A) (A) (A) (A) (A) (A) (A) (A) (A)
                 (A) (A) (A) (A) (A) (A) (A) (A) (A) (A) (A) (A)
                 (A) (A) (A) (A) (A) (A) (A) (A) (A) (A) (A) (A)
                 (A) (A) (A) (A) (A) (A) (A) (A) (A) (A) (A) (A)
                 (A) (A) (A) (A) (A) (A) (A) (A) (A) (A) (A) (A)
                 (A) (A) (A) (A) (A) (A) (A) (A) (A) (A) (A) (A)
                 (A) (A) (A) (A) (A) (A) (A) (A) (A) (A) (A) (A)
                 (A) (A) (A) (A) (A) (A) (A) (A) (A) (A) (A) (A)
                 (A) (A) (A) (A) (A) (A) (A) (A) (A) (A) (A) (A)
                 (A) (A) (A) (A) (A) (A) (A) (A) (A) (A) (A) (A)
                 (A) (A) (A) (A) (A) (A) (A) (A) (A) (A) (A) (A)
                 (A) (A) (A) (A) (A) (A) (A) (A) (A) (A) (A) (A)
                 (A) (A) (A) (A) (A) (A) (A) (A) (A) (A) (A) (A)
                 (A) (A) (A) (A) (A) (A) (A) (A) (A) (A) (A) (A)
                 (A) (A) (A) (A) (A) (A) (A) (A) (A) (A) (A) (A)
                 (A) (A) (A) (A) (A) (A) (A) (A) (A) (A) (A) (A)
                 (A) (A) (A) (A) (A) (A) (A) (A) (A) (A) (A) (A)
                 (A) (A) (A) (A) (A) (A) (A) (A) (A) (A) (A) (A)
                 (A) (A) (A) (A) (A) (A) (A) (A) (A) (A) (A) (A)
                 (A) (A) (A) (A) (A) (A) (A) (A) (A) (A) (A) (A)
                 (A) (A) (A) (A) (A) (A) (A) (A) (A) (A) (A) (A)
                 (A) (A) (A) (A) (A) (A) (A) (A) (A) (A) (A) (A)
                 (A) (A) (A) (A) (A) (A) (A) (A) (A) (A) (A) (A)
                 (A) (A) (A) (A) (A) (A) (A) (A) (A) (A) (A) (A)
                 (A) (A) (A) (A) (A) (A) (A) (A) (A) (A) (A) (A)
                 (A) (A) (A) (A) (A) (A) (A) (A) (A) (A) (A) (A)
                 (A) (A) (A) (A) (A) (A) (A) (A) (A) (A) (A) (A)
                 (A) (A) (A) (A) (A) (A) (A) (A) (A) (A) (A) (A)
 The electronic state is 1-A.
 Alpha  occ. eigenvalues --  -19.15128 -19.09266 -14.32939 -10.28695 -10.22794
 Alpha  occ. eigenvalues --  -10.22590 -10.22180 -10.20710 -10.20291 -10.20139
 Alpha  occ. eigenvalues --  -10.20079 -10.19391 -10.18907 -10.17308  -1.11834
 Alpha  occ. eigenvalues --   -1.02360  -0.96563  -0.85719  -0.82932  -0.78961
 Alpha  occ. eigenvalues --   -0.77837  -0.70709  -0.66480  -0.65282  -0.64533
 Alpha  occ. eigenvalues --   -0.59120  -0.58645  -0.54726  -0.51822  -0.51151
 Alpha  occ. eigenvalues --   -0.48883  -0.47157  -0.46840  -0.46430  -0.44677
 Alpha  occ. eigenvalues --   -0.43869  -0.43657  -0.42839  -0.42256  -0.40981
 Alpha  occ. eigenvalues --   -0.39191  -0.38205  -0.37859  -0.37261  -0.35268
 Alpha  occ. eigenvalues --   -0.31338  -0.29398  -0.28635  -0.28133  -0.27243
 Alpha  occ. eigenvalues --   -0.27008
 Alpha virt. eigenvalues --   -0.08054  -0.05930  -0.04096  -0.01543  -0.00653
 Alpha virt. eigenvalues --   -0.00268   0.00501   0.00896   0.01791   0.02117
 Alpha virt. eigenvalues --    0.02485   0.03420   0.04017   0.04344   0.04753
 Alpha virt. eigenvalues --    0.05342   0.05818   0.06212   0.07191   0.07298
 Alpha virt. eigenvalues --    0.07574   0.08166   0.08393   0.08827   0.09071
 Alpha virt. eigenvalues --    0.09299   0.09691   0.10091   0.10394   0.10844
 Alpha virt. eigenvalues --    0.11154   0.11334   0.11880   0.11984   0.12306
 Alpha virt. eigenvalues --    0.12865   0.13119   0.13247   0.13602   0.13776
 Alpha virt. eigenvalues --    0.13964   0.14462   0.14676   0.14939   0.15437
 Alpha virt. eigenvalues --    0.15644   0.15922   0.16911   0.17292   0.17616
 Alpha virt. eigenvalues --    0.17780   0.17879   0.18535   0.19187   0.19708
 Alpha virt. eigenvalues --    0.19907   0.20302   0.21090   0.21405   0.22036
 Alpha virt. eigenvalues --    0.22225   0.22655   0.22790   0.23436   0.23623
 Alpha virt. eigenvalues --    0.24116   0.24506   0.24909   0.25374   0.26528
 Alpha virt. eigenvalues --    0.26797   0.27063   0.27954   0.28535   0.29097
 Alpha virt. eigenvalues --    0.29393   0.29770   0.30615   0.30906   0.31683
 Alpha virt. eigenvalues --    0.32188   0.32778   0.32999   0.33558   0.33926
 Alpha virt. eigenvalues --    0.34346   0.34973   0.35972   0.37198   0.37753
 Alpha virt. eigenvalues --    0.37965   0.38977   0.39578   0.41735   0.41852
 Alpha virt. eigenvalues --    0.42797   0.45319   0.45566   0.47748   0.48542
 Alpha virt. eigenvalues --    0.49041   0.50218   0.51239   0.51793   0.52267
 Alpha virt. eigenvalues --    0.53388   0.53997   0.54713   0.55123   0.55333
 Alpha virt. eigenvalues --    0.55908   0.57253   0.58133   0.59066   0.60029
 Alpha virt. eigenvalues --    0.60762   0.61442   0.62074   0.63101   0.63565
 Alpha virt. eigenvalues --    0.64275   0.64436   0.65343   0.65717   0.66736
 Alpha virt. eigenvalues --    0.67362   0.68579   0.69127   0.69314   0.70926
 Alpha virt. eigenvalues --    0.71402   0.72988   0.73980   0.74292   0.75438
 Alpha virt. eigenvalues --    0.76057   0.76814   0.77998   0.78464   0.80587
 Alpha virt. eigenvalues --    0.81867   0.82677   0.84447   0.85343   0.85711
 Alpha virt. eigenvalues --    0.86425   0.87922   0.88606   0.89424   0.90293
 Alpha virt. eigenvalues --    0.90775   0.92470   0.93342   0.94195   0.96041
 Alpha virt. eigenvalues --    0.96790   0.98079   1.00095   1.00863   1.01746
 Alpha virt. eigenvalues --    1.02453   1.05626   1.06423   1.06654   1.08798
 Alpha virt. eigenvalues --    1.10443   1.10823   1.12534   1.13423   1.15185
 Alpha virt. eigenvalues --    1.17158   1.17521   1.19079   1.19861   1.21927
 Alpha virt. eigenvalues --    1.23706   1.25623   1.30467   1.33744   1.34786
 Alpha virt. eigenvalues --    1.35236   1.39647   1.41200   1.42585   1.43608
 Alpha virt. eigenvalues --    1.44919   1.45516   1.46480   1.47185   1.48496
 Alpha virt. eigenvalues --    1.49093   1.49873   1.54266   1.54830   1.57029
 Alpha virt. eigenvalues --    1.57314   1.57796   1.58306   1.60087   1.60621
 Alpha virt. eigenvalues --    1.61238   1.62657   1.64403   1.65298   1.66618
 Alpha virt. eigenvalues --    1.67190   1.70830   1.70856   1.72834   1.73541
 Alpha virt. eigenvalues --    1.75323   1.76218   1.77601   1.78099   1.79458
 Alpha virt. eigenvalues --    1.80024   1.82985   1.83368   1.84686   1.86206
 Alpha virt. eigenvalues --    1.87978   1.88817   1.90837   1.92058   1.93754
 Alpha virt. eigenvalues --    1.94886   1.95875   1.98694   1.99111   2.02108
 Alpha virt. eigenvalues --    2.04018   2.04646   2.06243   2.10300   2.11698
 Alpha virt. eigenvalues --    2.12696   2.13522   2.13850   2.16224   2.18807
 Alpha virt. eigenvalues --    2.23676   2.24642   2.28042   2.29684   2.31606
 Alpha virt. eigenvalues --    2.31664   2.33700   2.37059   2.39742   2.40314
 Alpha virt. eigenvalues --    2.44287   2.46130   2.47345   2.47929   2.48717
 Alpha virt. eigenvalues --    2.53111   2.54895   2.55387   2.56709   2.57858
 Alpha virt. eigenvalues --    2.58344   2.59279   2.62242   2.65321   2.66275
 Alpha virt. eigenvalues --    2.67607   2.68785   2.69692   2.70922   2.71225
 Alpha virt. eigenvalues --    2.72069   2.73627   2.74807   2.75898   2.77283
 Alpha virt. eigenvalues --    2.78150   2.79030   2.82473   2.84674   2.85593
 Alpha virt. eigenvalues --    2.86071   2.87144   2.88650   2.89345   2.91611
 Alpha virt. eigenvalues --    2.95026   2.97223   2.98392   2.98693   2.99661
 Alpha virt. eigenvalues --    3.00259   3.03179   3.06967   3.13219   3.17428
 Alpha virt. eigenvalues --    3.20030   3.23632   3.23897   3.25823   3.27375
 Alpha virt. eigenvalues --    3.36120   3.41456   3.43400   3.45737   3.50478
 Alpha virt. eigenvalues --    3.56066   3.58491   3.65330   3.66252   3.67225
 Alpha virt. eigenvalues --    3.71050   3.74381   3.76305   3.77510   3.79692
 Alpha virt. eigenvalues --    3.85180   3.91205   3.93282   3.99266   4.02441
 Alpha virt. eigenvalues --    4.07834   4.12239   4.32972   4.36188   4.37734
 Alpha virt. eigenvalues --    4.41666   4.56680   5.00606   5.08170   5.16206
 Alpha virt. eigenvalues --    5.22704   5.52480   5.67263   5.89123  23.64843
 Alpha virt. eigenvalues --   23.74031  23.80970  23.88575  23.94303  23.98060
 Alpha virt. eigenvalues --   23.98212  24.06070  24.10581  24.19418  24.36150
 Alpha virt. eigenvalues --   35.62664  49.91387  50.09217
          Condensed to atoms (all electrons):
               1          2          3          4          5          6
     1  C    6.230784  -0.109190  -0.352968  -0.482014   0.054495   0.020505
     2  C   -0.109190   6.200996  -0.622804  -0.041644  -0.101711  -0.208257
     3  C   -0.352968  -0.622804   7.220543  -0.165308  -0.064097   0.132647
     4  C   -0.482014  -0.041644  -0.165308   6.907638   0.378478  -0.055236
     5  O    0.054495  -0.101711  -0.064097   0.378478   8.113435  -0.136520
     6  O    0.020505  -0.208257   0.132647  -0.055236  -0.136520   8.141453
     7  H    0.401427  -0.105742   0.063260  -0.034038   0.004117   0.004537
     8  H    0.305161   0.052440  -0.004515  -0.012441  -0.005553  -0.002252
     9  H    0.418337  -0.044528  -0.058386   0.069988  -0.008365  -0.005203
    10  H   -0.008918   0.026533   0.297270   0.040119  -0.002197  -0.008473
    11  H    0.077209  -0.101348   0.459709  -0.142146   0.001425   0.004535
    12  H    0.000799   0.088627  -0.135235  -0.221782   0.036143   0.297949
    13  C    0.000040   0.000503  -0.000149   0.000288  -0.000002  -0.000085
    14  C    0.000112   0.003867  -0.003178   0.000956   0.000007  -0.000112
    15  C   -0.001167   0.003390  -0.011522  -0.006064   0.000398   0.002001
    16  C    0.002910  -0.004400   0.002963   0.024477  -0.000232   0.001766
    17  C   -0.000198   0.019393  -0.017858   0.018903  -0.001463  -0.015296
    18  N    0.000542   0.008827  -0.024928   0.008636   0.000139   0.008270
    19  C   -0.008277  -0.069231   0.089009  -0.073829   0.001000   0.012206
    20  C    0.018588   0.081972  -0.100779   0.075493  -0.002930  -0.023604
    21  H   -0.000001  -0.000019   0.000044   0.000002   0.000000   0.000002
    22  H    0.000015   0.000191  -0.000217   0.000089  -0.000000  -0.000031
    23  H    0.000001  -0.000004  -0.000090  -0.000039   0.000001   0.000003
    24  H   -0.000160  -0.001191   0.001335  -0.000943   0.000006   0.000475
    25  H   -0.000186  -0.001208   0.003316   0.008648  -0.000254  -0.002837
    26  H    0.001072  -0.013051   0.025536  -0.007712   0.000638  -0.001514
    27  H   -0.000112   0.000740  -0.000033   0.000808  -0.000041   0.000081
               7          8          9         10         11         12
     1  C    0.401427   0.305161   0.418337  -0.008918   0.077209   0.000799
     2  C   -0.105742   0.052440  -0.044528   0.026533  -0.101348   0.088627
     3  C    0.063260  -0.004515  -0.058386   0.297270   0.459709  -0.135235
     4  C   -0.034038  -0.012441   0.069988   0.040119  -0.142146  -0.221782
     5  O    0.004117  -0.005553  -0.008365  -0.002197   0.001425   0.036143
     6  O    0.004537  -0.002252  -0.005203  -0.008473   0.004535   0.297949
     7  H    0.594434  -0.029435  -0.037681  -0.009094   0.007426   0.002261
     8  H   -0.029435   0.556701  -0.039835   0.009578  -0.001352   0.000215
     9  H   -0.037681  -0.039835   0.527396   0.000931  -0.006794  -0.001170
    10  H   -0.009094   0.009578   0.000931   0.527473  -0.025177  -0.003039
    11  H    0.007426  -0.001352  -0.006794  -0.025177   0.606280  -0.013209
    12  H    0.002261   0.000215  -0.001170  -0.003039  -0.013209   0.657264
    13  C    0.000001  -0.000005   0.000002  -0.000065  -0.000982  -0.001415
    14  C    0.000011  -0.000016   0.000012   0.000054  -0.004501   0.001941
    15  C   -0.000095   0.000341  -0.000050   0.002590   0.010131  -0.006774
    16  C   -0.000107   0.000100  -0.000035   0.001394   0.038406  -0.078047
    17  C    0.000119  -0.000744   0.000581  -0.001790  -0.065072   0.065663
    18  N    0.000159  -0.000131   0.000127   0.000353   0.026444  -0.023002
    19  C   -0.000336   0.002093  -0.000930   0.010464   0.071766   0.036245
    20  C    0.000269  -0.002169   0.001074  -0.014636  -0.051871  -0.057851
    21  H    0.000000   0.000000  -0.000000   0.000005  -0.000064   0.000045
    22  H    0.000000  -0.000001   0.000000  -0.000023   0.000094  -0.000544
    23  H   -0.000000   0.000001  -0.000000   0.000003   0.000262  -0.000010
    24  H    0.000011   0.000003  -0.000008   0.000012  -0.000740   0.004368
    25  H   -0.000056  -0.000060   0.000106   0.000192  -0.008292  -0.007698
    26  H   -0.000040  -0.000107  -0.000205   0.000234   0.007328  -0.001217
    27  H    0.000005  -0.000040   0.000014  -0.000077  -0.002050   0.000653
              13         14         15         16         17         18
     1  C    0.000040   0.000112  -0.001167   0.002910  -0.000198   0.000542
     2  C    0.000503   0.003867   0.003390  -0.004400   0.019393   0.008827
     3  C   -0.000149  -0.003178  -0.011522   0.002963  -0.017858  -0.024928
     4  C    0.000288   0.000956  -0.006064   0.024477   0.018903   0.008636
     5  O   -0.000002   0.000007   0.000398  -0.000232  -0.001463   0.000139
     6  O   -0.000085  -0.000112   0.002001   0.001766  -0.015296   0.008270
     7  H    0.000001   0.000011  -0.000095  -0.000107   0.000119   0.000159
     8  H   -0.000005  -0.000016   0.000341   0.000100  -0.000744  -0.000131
     9  H    0.000002   0.000012  -0.000050  -0.000035   0.000581   0.000127
    10  H   -0.000065   0.000054   0.002590   0.001394  -0.001790   0.000353
    11  H   -0.000982  -0.004501   0.010131   0.038406  -0.065072   0.026444
    12  H   -0.001415   0.001941  -0.006774  -0.078047   0.065663  -0.023002
    13  C    6.353027  -1.136338   0.544437  -0.076428  -0.295566   0.033384
    14  C   -1.136338  11.750783  -3.885007  -0.953653   1.085167   0.013514
    15  C    0.544437  -3.885007  11.353373  -1.166536   0.239756  -0.260720
    16  C   -0.076428  -0.953653  -1.166536  11.395734  -2.483987   0.287907
    17  C   -0.295566   1.085167   0.239756  -2.483987   8.770917  -0.059684
    18  N    0.033384   0.013514  -0.260720   0.287907  -0.059684   6.768672
    19  C   -0.799854  -0.461928   2.252719   0.709693   0.467752  -0.397818
    20  C    1.006878  -0.257778  -3.584282  -1.804640  -1.513698   0.773937
    21  H    0.422918  -0.086628   0.041374  -0.003289   0.001589   0.000038
    22  H    0.272138   0.224072  -0.163730  -0.033307  -0.001622  -0.001254
    23  H   -0.122890   0.506332  -0.086062  -0.007052   0.017051  -0.002647
    24  H    0.043250  -0.048615  -0.266393   0.602631  -0.104394   0.031834
    25  H    0.000689   0.002588   0.062174  -0.163558   0.515015  -0.110438
    26  H   -0.008280  -0.015640   0.016452   0.020273  -0.014292  -0.123015
    27  H    0.041178  -0.077677  -0.055811   0.066440  -0.044056   0.018871
              19         20         21         22         23         24
     1  C   -0.008277   0.018588  -0.000001   0.000015   0.000001  -0.000160
     2  C   -0.069231   0.081972  -0.000019   0.000191  -0.000004  -0.001191
     3  C    0.089009  -0.100779   0.000044  -0.000217  -0.000090   0.001335
     4  C   -0.073829   0.075493   0.000002   0.000089  -0.000039  -0.000943
     5  O    0.001000  -0.002930   0.000000  -0.000000   0.000001   0.000006
     6  O    0.012206  -0.023604   0.000002  -0.000031   0.000003   0.000475
     7  H   -0.000336   0.000269   0.000000   0.000000  -0.000000   0.000011
     8  H    0.002093  -0.002169   0.000000  -0.000001   0.000001   0.000003
     9  H   -0.000930   0.001074  -0.000000   0.000000  -0.000000  -0.000008
    10  H    0.010464  -0.014636   0.000005  -0.000023   0.000003   0.000012
    11  H    0.071766  -0.051871  -0.000064   0.000094   0.000262  -0.000740
    12  H    0.036245  -0.057851   0.000045  -0.000544  -0.000010   0.004368
    13  C   -0.799854   1.006878   0.422918   0.272138  -0.122890   0.043250
    14  C   -0.461928  -0.257778  -0.086628   0.224072   0.506332  -0.048615
    15  C    2.252719  -3.584282   0.041374  -0.163730  -0.086062  -0.266393
    16  C    0.709693  -1.804640  -0.003289  -0.033307  -0.007052   0.602631
    17  C    0.467752  -1.513698   0.001589  -0.001622   0.017051  -0.104394
    18  N   -0.397818   0.773937   0.000038  -0.001254  -0.002647   0.031834
    19  C   15.202224 -11.240041   0.001787  -0.022419   0.075555  -0.000973
    20  C  -11.240041  22.277616   0.005334   0.050421  -0.071042   0.014473
    21  H    0.001787   0.005334   0.528185  -0.053934  -0.030218   0.004455
    22  H   -0.022419   0.050421  -0.053934   0.596074   0.024722  -0.013382
    23  H    0.075555  -0.071042  -0.030218   0.024722   0.545979  -0.004587
    24  H   -0.000973   0.014473   0.004455  -0.013382  -0.004587   0.648574
    25  H    0.005600  -0.002440  -0.000090   0.002357   0.000540  -0.026772
    26  H    0.701695  -0.306744  -0.000033  -0.000248   0.000348   0.001732
    27  H   -0.215674   0.563237   0.000621  -0.000652  -0.001565   0.001609
              25         26         27
     1  C   -0.000186   0.001072  -0.000112
     2  C   -0.001208  -0.013051   0.000740
     3  C    0.003316   0.025536  -0.000033
     4  C    0.008648  -0.007712   0.000808
     5  O   -0.000254   0.000638  -0.000041
     6  O   -0.002837  -0.001514   0.000081
     7  H   -0.000056  -0.000040   0.000005
     8  H   -0.000060  -0.000107  -0.000040
     9  H    0.000106  -0.000205   0.000014
    10  H    0.000192   0.000234  -0.000077
    11  H   -0.008292   0.007328  -0.002050
    12  H   -0.007698  -0.001217   0.000653
    13  C    0.000689  -0.008280   0.041178
    14  C    0.002588  -0.015640  -0.077677
    15  C    0.062174   0.016452  -0.055811
    16  C   -0.163558   0.020273   0.066440
    17  C    0.515015  -0.014292  -0.044056
    18  N   -0.110438  -0.123015   0.018871
    19  C    0.005600   0.701695  -0.215674
    20  C   -0.002440  -0.306744   0.563237
    21  H   -0.000090  -0.000033   0.000621
    22  H    0.002357  -0.000248  -0.000652
    23  H    0.000540   0.000348  -0.001565
    24  H   -0.026772   0.001732   0.001609
    25  H    0.544553  -0.001839   0.000450
    26  H   -0.001839   0.580947  -0.012658
    27  H    0.000450  -0.012658   0.542746
 Mulliken charges:
               1
     1  C   -0.568805
     2  C    0.936852
     3  C   -0.733567
     4  C   -0.291328
     5  O   -0.266917
     6  O   -0.167007
     7  H    0.138586
     8  H    0.172024
     9  H    0.184623
    10  H    0.156282
    11  H    0.112586
    12  H    0.358823
    13  C   -0.276675
    14  C   -0.658344
    15  C    0.965079
    16  C   -0.379424
    17  C   -0.582186
    18  N    0.021983
    19  C   -0.348496
    20  C    0.165212
    21  H    0.167877
    22  H    0.121190
    23  H    0.155410
    24  H    0.113392
    25  H    0.179499
    26  H    0.150340
    27  H    0.172991
 Sum of Mulliken charges =  -0.00000
 Mulliken charges with hydrogens summed into heavy atoms:
               1
     1  C   -0.073573
     2  C    0.936852
     3  C   -0.464699
     4  C   -0.291328
     5  O   -0.266917
     6  O    0.191815
    13  C    0.012392
    14  C   -0.502934
    15  C    0.965079
    16  C   -0.266031
    17  C   -0.402687
    18  N    0.021983
    19  C   -0.198156
    20  C    0.338203
 DipInt: DoE/N= T F RetVal/Mat= T F Init=T NMatP=  1 IDeriv=0 Min/MaxMlt=  0  4
 Entering OneElI...
 OneElI was handed 25769367289 working-precision words.
 Multipole integrals L=0 to 4 MinM= 0 MaxM= 0.
 Requested accuracy = 0.1000D-12
 ShPair: Thresh= 1.00D-13 NBox=     0 BxSize= 0.00D+00 RnKept= 2.39D+01
         NSMCal=                11175 NSMKep=                9167
 PrmmSu-InSpLW:  IPartL=    0 NPrtUS=    1 NPrtUL=    1 DoSpLW=F IThBeg=    0 IThEnd=    0 NThAct=    1.
 PrsmSu:  NPrtUS=   1 ThrOK=F IAlg=1 NPAlg=1 LenDen=           0 ISkipM=0 DoSpLW=F IThBeg=    0 IThEnd=    0.
 Prism:   IPart=     0 DynPar=F LinDyn=F Incr=          91.
 PRISM was handed 25768753363 working-precision words and  9167 shell-pairs
 IPart=  0 NShTot=        9167 NBatch=         101 AvBLen=        90.8
 PrsmSu-ThDecC:  IPartSL=    0    0 NPrtUSL=    1    1 IThBeg=    0 IThEnd=    0 CPU=   -1 GPU=   -1 NThAct=    1.
 PrSmSu:  NxtVal=             92.
 Electronic moments (au):
       -102.00000000         -2.25936900          1.59675902          0.71074314
      -4714.92395286       -418.77030736       -223.41018958         10.45040833
          5.17481125         -4.81822638       2896.87664987        -33.81995392
         -8.16673263      -1098.64871143      -1295.45731367       -262.23498067
         54.49857987       -103.51362131        -46.38850447      -1071.11256985
    -367602.56492473      -3857.76862580      -1440.52998677      -2476.26548309
       7090.87398789       -961.56024070       -215.53968529       -342.29610119
         69.68097798     -18819.52634934      -9047.26088413      -1185.65522149
      -2078.13516172       -297.73631739       -172.98131407
 Electronic spatial extent (au):  <R**2>=           5357.1044
 DipInt: DoE/N= F T RetVal/Mat= T F Init=T NMatP=  1 IDeriv=0 Min/MaxMlt=  0  4
 Nuclear    moments (au):
        102.00000000          0.00000000          0.00000000         -0.00000000
       4653.99077951        355.03399032        161.38880902          0.00000000
          0.00000000         -0.00000000      -3083.16505774         34.92285511
          1.93026666       1087.87161389       1386.44818501        315.78104009
        -49.20357372        105.70633393         54.95265507       1083.63055026
     351173.05591259       2362.10802975        596.72769649       2984.13366183
      -6742.44303533        994.94001308        194.85741673        298.09317479
        -87.51992944      15577.90429754       5999.37845680        836.86765301
       1827.62999333        370.22336575        190.40826458
 Total      moments (au):
         -0.00000000         -2.25936900          1.59675902          0.71074314
        -60.93317334        -63.73631703        -62.02138056         10.45040833
          5.17481125         -4.81822638       -186.28840786          1.10290120
         -6.23646597        -10.77709754         90.99087134         53.54605942
          5.29500615          2.19271262          8.56415060         12.51798041
     -16429.50901214      -1495.66059605       -843.80229028        507.86817874
        348.43095256         33.37977237        -20.68226857        -44.20292640
        -17.83895146      -3241.62205180      -3047.88242733       -348.78756848
       -250.50516839         72.48704836         17.42695050
 Traceless Quadrup. (au):
          1.29711697         -1.50602672          0.20890975         10.45040833
          5.17481125         -4.81822638
 Charge=             -0.0000 electrons
 Dipole moment (field-independent basis, Debye):
    X=             -5.7427    Y=              4.0586    Z=              1.8065  Tot=              7.2605
 Quadrupole moment (field-independent basis, Debye-Ang):
   XX=            -81.9572   YY=            -85.7275   ZZ=            -83.4209
   XY=             14.0562   XZ=              6.9603   YZ=             -6.4807
 Traceless Quadrupole moment (field-independent basis, Debye-Ang):
   XX=              1.7447   YY=             -2.0257   ZZ=              0.2810
   XY=             14.0562   XZ=              6.9603   YZ=             -6.4807
 Octapole moment (field-independent basis, Debye-Ang**2):
  XXX=           -132.5929  YYY=              0.7850  ZZZ=             -4.4389  XYY=             -7.6707
  XXY=             64.7638  XXZ=             38.1120  XZZ=              3.7688  YZZ=              1.5607
  YYZ=              6.0956  XYZ=              8.9098
 Hexadecapole moment (field-independent basis, Debye-Ang**3):
 XXXX=          -6188.1409 YYYY=           -563.3375 ZZZZ=           -317.8164 XXXY=            191.2875
 XXXZ=            131.2358 YYYX=             12.5724 YYYZ=             -7.7899 ZZZX=            -16.6489
 ZZZY=             -6.7190 XXYY=          -1220.9503 XXZZ=          -1147.9787 YYZZ=           -131.3701
 XXYZ=            -94.3523 YYXZ=             27.3021 ZZXY=              6.5638
 N-N= 7.768025015648D+02 E-N=-3.027416233732D+03  KE= 6.302580400121D+02
 Entering OneElI...
 OneElI was handed 25769463047 working-precision words.
 Calculate electrostatic properties
    NBasis =   399  MinDer = 0  MaxDer = 0
    NGrid  =    27  NMatD  =   1
 Requested accuracy = 0.1000D-12
 ShPair: Thresh= 1.00D-13 NBox=     0 BxSize= 0.00D+00 RnKept= 2.39D+01
         NSMCal=                11175 NSMKep=                8483
 PrmmSu-InSpLW:  IPartL=    0 NPrtUS=   48 NPrtUL=    1 DoSpLW=F IThBeg=    0 IThEnd=   47 NThAct=   48.
 PrsmSu:  NPrtUS=  48 ThrOK=T IAlg=1 NPAlg=1 LenDen=           0 ISkipM=0 DoSpLW=F IThBeg=    0 IThEnd=   47.
 Prism:   IPart=     0 DynPar=F LinDyn=F Incr=          47.
 PRISM was handed   536686082 working-precision words and  8483 shell-pairs
 PRISM was handed   536686082 working-precision words and  8483 shell-pairs
 PRISM was handed   536686082 working-precision words and  8483 shell-pairs
 PRISM was handed   536686082 working-precision words and  8483 shell-pairs
 PRISM was handed   536686082 working-precision words and  8483 shell-pairs
 PRISM was handed   536686082 working-precision words and  8483 shell-pairs
 PRISM was handed   536686082 working-precision words and  8483 shell-pairs
 PRISM was handed   536686082 working-precision words and  8483 shell-pairs
 PRISM was handed   536686082 working-precision words and  8483 shell-pairs
 PRISM was handed   536686082 working-precision words and  8483 shell-pairs
 PRISM was handed   536686082 working-precision words and  8483 shell-pairs
 PRISM was handed   536686082 working-precision words and  8483 shell-pairs
 PRISM was handed   536686082 working-precision words and  8483 shell-pairs
 PRISM was handed   536686082 working-precision words and  8483 shell-pairs
 PRISM was handed   536686082 working-precision words and  8483 shell-pairs
 PRISM was handed   536686082 working-precision words and  8483 shell-pairs
 PRISM was handed   536686082 working-precision words and  8483 shell-pairs
 PRISM was handed   536686082 working-precision words and  8483 shell-pairs
 PRISM was handed   536686082 working-precision words and  8483 shell-pairs
 PRISM was handed   536686082 working-precision words and  8483 shell-pairs
 PRISM was handed   536686082 working-precision words and  8483 shell-pairs
 PRISM was handed   536686082 working-precision words and  8483 shell-pairs
 PRISM was handed   536686082 working-precision words and  8483 shell-pairs
 PRISM was handed   536686082 working-precision words and  8483 shell-pairs
 PRISM was handed   536686082 working-precision words and  8483 shell-pairs
 PRISM was handed   536686082 working-precision words and  8483 shell-pairs
 PRISM was handed   536686082 working-precision words and  8483 shell-pairs
 PRISM was handed   536686082 working-precision words and  8483 shell-pairs
 PRISM was handed   536686082 working-precision words and  8483 shell-pairs
 PRISM was handed   536686082 working-precision words and  8483 shell-pairs
 PRISM was handed   536686082 working-precision words and  8483 shell-pairs
 PRISM was handed   536686082 working-precision words and  8483 shell-pairs
 PRISM was handed   536686082 working-precision words and  8483 shell-pairs
 PRISM was handed   536686082 working-precision words and  8483 shell-pairs
 PRISM was handed   536686082 working-precision words and  8483 shell-pairs
 PRISM was handed   536686082 working-precision words and  8483 shell-pairs
 PRISM was handed   536686082 working-precision words and  8483 shell-pairs
 PRISM was handed   536686082 working-precision words and  8483 shell-pairs
 PRISM was handed   536686082 working-precision words and  8483 shell-pairs
 PRISM was handed   536686082 working-precision words and  8483 shell-pairs
 PRISM was handed   536686082 working-precision words and  8483 shell-pairs
 PRISM was handed   536686082 working-precision words and  8483 shell-pairs
 PRISM was handed   536686082 working-precision words and  8483 shell-pairs
 PRISM was handed   536686082 working-precision words and  8483 shell-pairs
 PRISM was handed   536686082 working-precision words and  8483 shell-pairs
 PRISM was handed   536686082 working-precision words and  8483 shell-pairs
 PRISM was handed   536686082 working-precision words and  8483 shell-pairs
 PRISM was handed   536686082 working-precision words and  8483 shell-pairs
 IPart= 42 NShTot=        4347 NBatch=         161 AvBLen=        27.0
 PrsmSu-ThDecC:  IPartSL=   42    0 NPrtUSL=   48    1 IThBeg=    0 IThEnd=   47 CPU=   -1 GPU=   -1 NThAct=   48.
 IPart= 32 NShTot=        4509 NBatch=         167 AvBLen=        27.0
 PrsmSu-ThDecC:  IPartSL=   32    0 NPrtUSL=   48    1 IThBeg=    0 IThEnd=   47 CPU=   -1 GPU=   -1 NThAct=   47.
 IPart= 14 NShTot=        4779 NBatch=         177 AvBLen=        27.0
 IPart= 15 NShTot=        4779 NBatch=         177 AvBLen=        27.0
 PrsmSu-ThDecC:  IPartSL=   14    0 NPrtUSL=   48    1 IThBeg=    0 IThEnd=   47 CPU=   -1 GPU=   -1 NThAct=   46.
 PrsmSu-ThDecC:  IPartSL=   15    0 NPrtUSL=   48    1 IThBeg=    0 IThEnd=   47 CPU=   -1 GPU=   -1 NThAct=   45.
 IPart=  8 NShTot=        5265 NBatch=         195 AvBLen=        27.0
 PrsmSu-ThDecC:  IPartSL=    8    0 NPrtUSL=   48    1 IThBeg=    0 IThEnd=   47 CPU=   -1 GPU=   -1 NThAct=   44.
 IPart=  0 NShTot=        5751 NBatch=         213 AvBLen=        27.0
 PrsmSu-ThDecC:  IPartSL=    0    0 NPrtUSL=   48    1 IThBeg=    0 IThEnd=   47 CPU=   -1 GPU=   -1 NThAct=   43.
 IPart= 34 NShTot=        4509 NBatch=         167 AvBLen=        27.0
 PrsmSu-ThDecC:  IPartSL=   34    0 NPrtUSL=   48    1 IThBeg=    0 IThEnd=   47 CPU=   -1 GPU=   -1 NThAct=   42.
 IPart= 17 NShTot=        4779 NBatch=         177 AvBLen=        27.0
 PrsmSu-ThDecC:  IPartSL=   17    0 NPrtUSL=   48    1 IThBeg=    0 IThEnd=   47 CPU=   -1 GPU=   -1 NThAct=   41.
 IPart= 11 NShTot=        5076 NBatch=         188 AvBLen=        27.0
 PrsmSu-ThDecC:  IPartSL=   11    0 NPrtUSL=   48    1 IThBeg=    0 IThEnd=   47 CPU=   -1 GPU=   -1 NThAct=   40.
 IPart= 31 NShTot=        4536 NBatch=         168 AvBLen=        27.0
 PrsmSu-ThDecC:  IPartSL=   31    0 NPrtUSL=   48    1 IThBeg=    0 IThEnd=   47 CPU=   -1 GPU=   -1 NThAct=   39.
 IPart= 46 NShTot=        4320 NBatch=         160 AvBLen=        27.0
 PrsmSu-ThDecC:  IPartSL=   46    0 NPrtUSL=   48    1 IThBeg=    0 IThEnd=   47 CPU=   -1 GPU=   -1 NThAct=   38.
 IPart= 10 NShTot=        5130 NBatch=         190 AvBLen=        27.0
 PrsmSu-ThDecC:  IPartSL=   10    0 NPrtUSL=   48    1 IThBeg=    0 IThEnd=   47 CPU=   -1 GPU=   -1 NThAct=   37.
 IPart= 21 NShTot=        4671 NBatch=         173 AvBLen=        27.0
 PrsmSu-ThDecC:  IPartSL=   21    0 NPrtUSL=   48    1 IThBeg=    0 IThEnd=   47 CPU=   -1 GPU=   -1 NThAct=   36.
 IPart= 23 NShTot=        4617 NBatch=         171 AvBLen=        27.0
 PrsmSu-ThDecC:  IPartSL=   23    0 NPrtUSL=   48    1 IThBeg=    0 IThEnd=   47 CPU=   -1 GPU=   -1 NThAct=   35.
 IPart=  1 NShTot=        5643 NBatch=         209 AvBLen=        27.0
 PrsmSu-ThDecC:  IPartSL=    1    0 NPrtUSL=   48    1 IThBeg=    0 IThEnd=   47 CPU=   -1 GPU=   -1 NThAct=   34.
 IPart= 28 NShTot=        4590 NBatch=         170 AvBLen=        27.0
 PrsmSu-ThDecC:  IPartSL=   28    0 NPrtUSL=   48    1 IThBeg=    0 IThEnd=   47 CPU=   -1 GPU=   -1 NThAct=   33.
 IPart= 33 NShTot=        4509 NBatch=         167 AvBLen=        27.0
 PrsmSu-ThDecC:  IPartSL=   33    0 NPrtUSL=   48    1 IThBeg=    0 IThEnd=   47 CPU=   -1 GPU=   -1 NThAct=   32.
 IPart= 36 NShTot=        4482 NBatch=         166 AvBLen=        27.0
 PrsmSu-ThDecC:  IPartSL=   36    0 NPrtUSL=   48    1 IThBeg=    0 IThEnd=   47 CPU=   -1 GPU=   -1 NThAct=   31.
 IPart= 16 NShTot=        4779 NBatch=         177 AvBLen=        27.0
 PrsmSu-ThDecC:  IPartSL=   16    0 NPrtUSL=   48    1 IThBeg=    0 IThEnd=   47 CPU=   -1 GPU=   -1 NThAct=   30.
 IPart=  4 NShTot=        5454 NBatch=         202 AvBLen=        27.0
 PrsmSu-ThDecC:  IPartSL=    4    0 NPrtUSL=   48    1 IThBeg=    0 IThEnd=   47 CPU=   -1 GPU=   -1 NThAct=   29.
 IPart= 27 NShTot=        4617 NBatch=         171 AvBLen=        27.0
 PrsmSu-ThDecC:  IPartSL=   27    0 NPrtUSL=   48    1 IThBeg=    0 IThEnd=   47 CPU=   -1 GPU=   -1 NThAct=   28.
 IPart= 39 NShTot=        4401 NBatch=         163 AvBLen=        27.0
 PrsmSu-ThDecC:  IPartSL=   39    0 NPrtUSL=   48    1 IThBeg=    0 IThEnd=   47 CPU=   -1 GPU=   -1 NThAct=   27.
 IPart= 29 NShTot=        4563 NBatch=         169 AvBLen=        27.0
 PrsmSu-ThDecC:  IPartSL=   29    0 NPrtUSL=   48    1 IThBeg=    0 IThEnd=   47 CPU=   -1 GPU=   -1 NThAct=   26.
 IPart= 22 NShTot=        4671 NBatch=         173 AvBLen=        27.0
 PrsmSu-ThDecC:  IPartSL=   22    0 NPrtUSL=   48    1 IThBeg=    0 IThEnd=   47 CPU=   -1 GPU=   -1 NThAct=   25.
 IPart= 13 NShTot=        4968 NBatch=         184 AvBLen=        27.0
 PrsmSu-ThDecC:  IPartSL=   13    0 NPrtUSL=   48    1 IThBeg=    0 IThEnd=   47 CPU=   -1 GPU=   -1 NThAct=   24.
 IPart= 24 NShTot=        4617 NBatch=         171 AvBLen=        27.0
 PrsmSu-ThDecC:  IPartSL=   24    0 NPrtUSL=   48    1 IThBeg=    0 IThEnd=   47 CPU=   -1 GPU=   -1 NThAct=   23.
 IPart= 44 NShTot=        4320 NBatch=         160 AvBLen=        27.0
 PrsmSu-ThDecC:  IPartSL=   44    0 NPrtUSL=   48    1 IThBeg=    0 IThEnd=   47 CPU=   -1 GPU=   -1 NThAct=   22.
 IPart= 26 NShTot=        4617 NBatch=         171 AvBLen=        27.0
 PrsmSu-ThDecC:  IPartSL=   26    0 NPrtUSL=   48    1 IThBeg=    0 IThEnd=   47 CPU=   -1 GPU=   -1 NThAct=   21.
 IPart= 19 NShTot=        4725 NBatch=         175 AvBLen=        27.0
 PrsmSu-ThDecC:  IPartSL=   19    0 NPrtUSL=   48    1 IThBeg=    0 IThEnd=   47 CPU=   -1 GPU=   -1 NThAct=   20.
 IPart=  5 NShTot=        5400 NBatch=         200 AvBLen=        27.0
 PrsmSu-ThDecC:  IPartSL=    5    0 NPrtUSL=   48    1 IThBeg=    0 IThEnd=   47 CPU=   -1 GPU=   -1 NThAct=   19.
 IPart=  7 NShTot=        5319 NBatch=         197 AvBLen=        27.0
 PrsmSu-ThDecC:  IPartSL=    7    0 NPrtUSL=   48    1 IThBeg=    0 IThEnd=   47 CPU=   -1 GPU=   -1 NThAct=   18.
 IPart= 40 NShTot=        4347 NBatch=         161 AvBLen=        27.0
 PrsmSu-ThDecC:  IPartSL=   40    0 NPrtUSL=   48    1 IThBeg=    0 IThEnd=   47 CPU=   -1 GPU=   -1 NThAct=   17.
 IPart=  9 NShTot=        5211 NBatch=         193 AvBLen=        27.0
 PrsmSu-ThDecC:  IPartSL=    9    0 NPrtUSL=   48    1 IThBeg=    0 IThEnd=   47 CPU=   -1 GPU=   -1 NThAct=   16.
 IPart= 47 NShTot=        4320 NBatch=         160 AvBLen=        27.0
 PrsmSu-ThDecC:  IPartSL=   47    0 NPrtUSL=   48    1 IThBeg=    0 IThEnd=   47 CPU=   -1 GPU=   -1 NThAct=   15.
 IPart= 12 NShTot=        4995 NBatch=         185 AvBLen=        27.0
 PrsmSu-ThDecC:  IPartSL=   12    0 NPrtUSL=   48    1 IThBeg=    0 IThEnd=   47 CPU=   -1 GPU=   -1 NThAct=   14.
 IPart= 43 NShTot=        4320 NBatch=         160 AvBLen=        27.0
 PrsmSu-ThDecC:  IPartSL=   43    0 NPrtUSL=   48    1 IThBeg=    0 IThEnd=   47 CPU=   -1 GPU=   -1 NThAct=   13.
 IPart= 30 NShTot=        4563 NBatch=         169 AvBLen=        27.0
 PrsmSu-ThDecC:  IPartSL=   30    0 NPrtUSL=   48    1 IThBeg=    0 IThEnd=   47 CPU=   -1 GPU=   -1 NThAct=   12.
 IPart= 18 NShTot=        4779 NBatch=         177 AvBLen=        27.0
 IPart= 41 NShTot=        4347 NBatch=         161 AvBLen=        27.0
 PrsmSu-ThDecC:  IPartSL=   18    0 NPrtUSL=   48    1 IThBeg=    0 IThEnd=   47 CPU=   -1 GPU=   -1 NThAct=   11.
 IPart= 45 NShTot=        4320 NBatch=         160 AvBLen=        27.0
 PrsmSu-ThDecC:  IPartSL=   41    0 NPrtUSL=   48    1 IThBeg=    0 IThEnd=   47 CPU=   -1 GPU=   -1 NThAct=   10.
 PrsmSu-ThDecC:  IPartSL=   45    0 NPrtUSL=   48    1 IThBeg=    0 IThEnd=   47 CPU=   -1 GPU=   -1 NThAct=    9.
 IPart= 37 NShTot=        4455 NBatch=         165 AvBLen=        27.0
 PrsmSu-ThDecC:  IPartSL=   37    0 NPrtUSL=   48    1 IThBeg=    0 IThEnd=   47 CPU=   -1 GPU=   -1 NThAct=    8.
 IPart= 25 NShTot=        4617 NBatch=         171 AvBLen=        27.0
 PrsmSu-ThDecC:  IPartSL=   25    0 NPrtUSL=   48    1 IThBeg=    0 IThEnd=   47 CPU=   -1 GPU=   -1 NThAct=    7.
 IPart= 38 NShTot=        4401 NBatch=         163 AvBLen=        27.0
 PrsmSu-ThDecC:  IPartSL=   38    0 NPrtUSL=   48    1 IThBeg=    0 IThEnd=   47 CPU=   -1 GPU=   -1 NThAct=    6.
 IPart=  3 NShTot=        5508 NBatch=         204 AvBLen=        27.0
 PrsmSu-ThDecC:  IPartSL=    3    0 NPrtUSL=   48    1 IThBeg=    0 IThEnd=   47 CPU=   -1 GPU=   -1 NThAct=    5.
 IPart=  2 NShTot=        5562 NBatch=         206 AvBLen=        27.0
 PrsmSu-ThDecC:  IPartSL=    2    0 NPrtUSL=   48    1 IThBeg=    0 IThEnd=   47 CPU=   -1 GPU=   -1 NThAct=    4.
 IPart= 35 NShTot=        4482 NBatch=         166 AvBLen=        27.0
 PrsmSu-ThDecC:  IPartSL=   35    0 NPrtUSL=   48    1 IThBeg=    0 IThEnd=   47 CPU=   -1 GPU=   -1 NThAct=    3.
 IPart= 20 NShTot=        4698 NBatch=         174 AvBLen=        27.0
 PrsmSu-ThDecC:  IPartSL=   20    0 NPrtUSL=   48    1 IThBeg=    0 IThEnd=   47 CPU=   -1 GPU=   -1 NThAct=    2.
 IPart=  6 NShTot=        5373 NBatch=         199 AvBLen=        27.0
 PrsmSu-ThDecC:  IPartSL=    6    0 NPrtUSL=   48    1 IThBeg=    0 IThEnd=   47 CPU=   -1 GPU=   -1 NThAct=    1.
 PrSmSu:  NxtVal=           2257.
 --------------------------------------------------------
       Center         ----      EFG at Nuclei      ----
                      3XX-RR        3YY-RR        3ZZ-RR
 --------------------------------------------------------
     1   Atom       -0.043420      0.012943      0.030478
     2   Atom        0.165317     -0.001902     -0.163415
     3   Atom        0.144207      0.042172     -0.186379
     4   Atom        0.052918      0.147385     -0.200303
     5   Atom        0.225800      0.763134     -0.988934
     6   Atom       -1.082239     -0.107678      1.189917
     7   Atom        0.147529     -0.137336     -0.010194
     8   Atom        0.148172      0.126248     -0.274420
     9   Atom       -0.142066      0.010316      0.131750
    10   Atom        0.148341     -0.218905      0.070563
    11   Atom       -0.209329      0.048755      0.160574
    12   Atom       -0.103548     -0.126277      0.229825
    13   Atom        0.177733     -0.121644     -0.056089
    14   Atom        0.100209     -0.083069     -0.017140
    15   Atom        0.151193     -0.040978     -0.110215
    16   Atom        0.150700     -0.038890     -0.111809
    17   Atom        0.165275     -0.009488     -0.155787
    18   Atom        0.901057     -0.387510     -0.513546
    19   Atom        0.230332     -0.079413     -0.150919
    20   Atom        0.161660     -0.063936     -0.097724
    21   Atom       -0.303356      0.144605      0.158750
    22   Atom        0.122778     -0.003592     -0.119186
    23   Atom        0.077716     -0.030516     -0.047200
    24   Atom       -0.050971      0.002613      0.048358
    25   Atom        0.088023     -0.112646      0.024623
    26   Atom       -0.100258      0.045842      0.054416
    27   Atom        0.139547     -0.132839     -0.006708
 --------------------------------------------------------
                        XY            XZ            YZ
 --------------------------------------------------------
     1   Atom       -0.086604     -0.018970     -0.004226
     2   Atom        0.012259     -0.168142      0.164955
     3   Atom        0.031647     -0.155250      0.191590
     4   Atom       -0.100315     -0.172757      0.259577
     5   Atom        1.115579      0.079752      0.509570
     6   Atom       -0.013559      0.363713     -0.176257
     7   Atom       -0.020481     -0.010079     -0.224310
     8   Atom       -0.017551      0.037498      0.114956
     9   Atom        0.199815     -0.087924      0.062608
    10   Atom       -0.054223     -0.021408     -0.196527
    11   Atom       -0.195114      0.037835      0.000946
    12   Atom        0.338154      0.145946     -0.153704
    13   Atom        0.036344     -0.078464     -0.268078
    14   Atom        0.045751     -0.108004     -0.260754
    15   Atom       -0.018842     -0.078906     -0.288968
    16   Atom       -0.028771     -0.044165     -0.180879
    17   Atom       -0.104998     -0.002704     -0.243655
    18   Atom       -0.308437      0.030671     -0.207631
    19   Atom       -0.007754     -0.062781     -0.235076
    20   Atom       -0.028259     -0.036802     -0.199275
    21   Atom        0.097964     -0.037212      0.016100
    22   Atom        0.075339     -0.090884      0.227016
    23   Atom        0.118987     -0.122570      0.212441
    24   Atom       -0.173040      0.156177      0.148183
    25   Atom        0.131861     -0.091386      0.202406
    26   Atom       -0.168587      0.164004      0.122189
    27   Atom        0.059421     -0.040888      0.235148
 --------------------------------------------------------


 ---------------------------------------------------------------------------------
              Nuclear Quadrupole Coupling Constant in Principal Axis System
 ---------------------------------------------------------------------------------

       Atom             a.u.   MegaHertz   Gauss  10(-4) cm-1        Axes

              Baa    -0.6852     3.291     1.174     1.098  0.1104  0.6429  0.7579
    18 N(14)  Bbb    -0.2898     1.392     0.497     0.464  0.2061  0.7312 -0.6503
              Bcc     0.9750    -4.683    -1.671    -1.562  0.9723 -0.2280  0.0518
 

 ---------------------------------------------------------------------------------

 No NMR shielding tensors so no spin-rotation constants.
 Leave Link  601 at Thu Apr 21 11:00:29 2022, MaxMem= 25769803776 cpu:              25.3 elap:               0.7
 Calling FoFJK, ICntrl=      2127 FMM=F ISym2X=0 I1Cent= 0 IOpClX= 0 NMat=1 NMatS=1 NMatT=0.
 ***** Axes restored to original set *****
 -------------------------------------------------------------------
 Center     Atomic                   Forces (Hartrees/Bohr)
 Number     Number              X              Y              Z
 -------------------------------------------------------------------
      1        6          -0.001462172   -0.009826482    0.002091400
      2        6           0.022527405    0.031602345   -0.014270392
      3        6           0.000581928   -0.013729526    0.002736027
      4        6          -0.013253098    0.000072890    0.021564779
      5        8           0.022691021   -0.068321104    0.014802292
      6        8          -0.001240696    0.017201692   -0.013122552
      7        1          -0.008269934    0.004362958   -0.006677356
      8        1           0.008790796   -0.008140213   -0.006446036
      9        1          -0.007295307   -0.000952930    0.006814442
     10        1          -0.001331456    0.006069743   -0.001832110
     11        1          -0.000545537    0.005076689   -0.001829003
     12        1          -0.025127627    0.039111990   -0.003463359
     13        6           0.005349495    0.047361518    0.013341569
     14        6          -0.006023099   -0.020213448   -0.006540253
     15        6           0.012118284   -0.012053195    0.006956848
     16        6          -0.020160241   -0.010611986    0.006306144
     17        6           0.014537226    0.004611695   -0.016986184
     18        7          -0.012537197    0.007971361    0.008241286
     19        6           0.012224805   -0.016393736   -0.005166528
     20        6           0.014462111    0.001603622    0.000096500
     21        1          -0.004323863    0.000032346   -0.000360462
     22        1          -0.005106145   -0.000126407    0.007472109
     23        1           0.006672702   -0.017608173   -0.007159294
     24        1           0.004628600    0.002659392   -0.000187686
     25        1          -0.003232885    0.008069243    0.004543860
     26        1          -0.004782453   -0.003384324   -0.009871101
     27        1          -0.009892663    0.005554040   -0.001054939
 -------------------------------------------------------------------
 Cartesian Forces:  Max     0.068321104 RMS     0.014647943

 GradGradGradGradGradGradGradGradGradGradGradGradGradGradGradGradGradGrad
 Berny optimization.
 FormGI is forming the generalized inverse of G from B-inverse, IUseBI=4.
 Internal  Forces:  Max     0.069100447 RMS     0.013068636
 Search for a local minimum.
 Step number   1 out of a maximum of  129
 All quantities printed in internal units (Hartrees-Bohrs-Radians)
 Mixed Optimization -- RFO/linear search
 Second derivative matrix not updated -- first step.
 ITU=  0
     Eigenvalues ---    0.00230   0.00830   0.01273   0.01339   0.01589
     Eigenvalues ---    0.01716   0.01723   0.01763   0.01893   0.01955
     Eigenvalues ---    0.02023   0.02085   0.02193   0.02237   0.02263
     Eigenvalues ---    0.02277   0.02396   0.02506   0.02582   0.02811
     Eigenvalues ---    0.02812   0.03381   0.03560   0.06721   0.07713
     Eigenvalues ---    0.15520   0.15750   0.15869   0.15903   0.15988
     Eigenvalues ---    0.15994   0.16000   0.16000   0.16000   0.16000
     Eigenvalues ---    0.16000   0.16000   0.16000   0.16000   0.21808
     Eigenvalues ---    0.21973   0.22023   0.23352   0.24922   0.24950
     Eigenvalues ---    0.24953   0.24984   0.25000   0.25000   0.32893
     Eigenvalues ---    0.34781   0.34825   0.34853   0.35926   0.35942
     Eigenvalues ---    0.35969   0.35969   0.35970   0.35999   0.36023
     Eigenvalues ---    0.36028   0.36040   0.36754   0.37379   0.39482
     Eigenvalues ---    0.42635   0.45456   0.46733   0.53378   0.56018
     Eigenvalues ---    0.58491   0.58879   0.58958   0.66564   1.17223
 RFO step:  Lambda=-5.48677094D-02 EMin= 2.30000000D-03
 Linear search not attempted -- first point.
 Maximum step size (   0.300) exceeded in Quadratic search.
    -- Step size scaled by   0.719
 Iteration  1 RMS(Cart)=  0.15548836 RMS(Int)=  0.00347635
 Iteration  2 RMS(Cart)=  0.00612414 RMS(Int)=  0.00037323
 Iteration  3 RMS(Cart)=  0.00002311 RMS(Int)=  0.00037310
 Iteration  4 RMS(Cart)=  0.00000001 RMS(Int)=  0.00037310
 Variable       Old X    -DE/DX   Delta X   Delta X   Delta X     New X
                                 (Linear)    (Quad)   (Total)
    R1        2.82539   0.00540   0.00000   0.01012   0.01012   2.83551
    R2        2.06032  -0.00019   0.00000  -0.00035  -0.00035   2.05998
    R3        2.05915   0.00374   0.00000   0.00667   0.00667   2.06582
    R4        2.05960   0.00151   0.00000   0.00269   0.00269   2.06229
    R5        2.54239  -0.00203   0.00000  -0.00237  -0.00237   2.54001
    R6        2.75279   0.02652   0.00000   0.04449   0.04449   2.79727
    R7        2.04172   0.00189   0.00000   0.00327   0.00327   2.04499
    R8        2.04082   0.00328   0.00000   0.00569   0.00569   2.04652
    R9        2.22441   0.06910   0.00000   0.04049   0.04049   2.26490
   R10        2.51838   0.04148   0.00000   0.04634   0.04634   2.56472
   R11        1.78475   0.02840   0.00000   0.03168   0.03168   1.81643
   R12        4.81190  -0.00416   0.00000  -0.04021  -0.04021   4.77168
   R13        2.46095   0.05064   0.00000   0.05054   0.05054   2.51149
   R14        2.04020   0.00284   0.00000   0.00492   0.00492   2.04512
   R15        2.04037   0.00317   0.00000   0.00550   0.00550   2.04587
   R16        2.76218   0.00605   0.00000   0.01031   0.01031   2.77249
   R17        2.04197   0.00419   0.00000   0.00728   0.00728   2.04925
   R18        2.70003  -0.01416   0.00000  -0.02333  -0.02337   2.67666
   R19        2.64014   0.00050   0.00000   0.00042   0.00053   2.64067
   R20        2.63487  -0.01149   0.00000  -0.01690  -0.01705   2.61782
   R21        2.04130   0.00084   0.00000   0.00146   0.00146   2.04276
   R22        2.55120   0.00296   0.00000   0.00384   0.00377   2.55498
   R23        2.04130   0.00320   0.00000   0.00555   0.00555   2.04684
   R24        2.50671   0.00861   0.00000   0.01048   0.01052   2.51723
   R25        2.63045   0.00142   0.00000   0.00296   0.00308   2.63352
   R26        2.04046   0.00592   0.00000   0.01025   0.01025   2.05071
   R27        2.04129   0.00223   0.00000   0.00387   0.00387   2.04515
    A1        2.00262  -0.01034   0.00000  -0.03566  -0.03566   1.96696
    A2        1.80686   0.01981   0.00000   0.06620   0.06676   1.87362
    A3        2.00300  -0.01092   0.00000  -0.03540  -0.03541   1.96758
    A4        1.96811  -0.00777   0.00000  -0.02845  -0.02795   1.94016
    A5        1.80704   0.01249   0.00000   0.04194   0.04148   1.84851
    A6        1.87757  -0.00452   0.00000  -0.01266  -0.01213   1.86545
    A7        2.10554   0.00671   0.00000   0.01623   0.01617   2.12171
    A8        2.04260  -0.00995   0.00000  -0.02317  -0.02324   2.01936
    A9        2.13197   0.00339   0.00000   0.00844   0.00838   2.14035
   A10        2.05450   0.00549   0.00000   0.01835   0.01835   2.07285
   A11        2.14812   0.00166   0.00000   0.00554   0.00554   2.15365
   A12        2.08052  -0.00715   0.00000  -0.02392  -0.02392   2.05660
   A13        2.16437  -0.01640   0.00000  -0.03838  -0.03847   2.12589
   A14        2.11869  -0.02268   0.00000  -0.05315  -0.05322   2.06546
   A15        1.99869   0.03917   0.00000   0.09275   0.09268   2.09138
   A16        1.71713   0.04951   0.00000   0.16569   0.16569   1.88282
   A17        2.38729   0.00737   0.00000   0.01737   0.01737   2.40466
   A18        2.12686  -0.00283   0.00000  -0.00640  -0.00724   2.11962
   A19        2.12141   0.00620   0.00000   0.02381   0.02298   2.14438
   A20        2.00838  -0.00131   0.00000  -0.00125  -0.00209   2.00629
   A21        2.13298   0.01871   0.00000   0.04970   0.04951   2.18249
   A22        1.95449   0.01076   0.00000   0.04432   0.04423   1.99871
   A23        2.18585  -0.02889   0.00000  -0.08935  -0.08965   2.09620
   A24        2.12989   0.00530   0.00000   0.01374   0.01375   2.14364
   A25        2.15079  -0.01297   0.00000  -0.02951  -0.02953   2.12126
   A26        2.00110   0.00771   0.00000   0.01631   0.01628   2.01738
   A27        2.11697  -0.00491   0.00000  -0.01421  -0.01479   2.10218
   A28        2.07946   0.00458   0.00000   0.01784   0.01763   2.09709
   A29        2.05864   0.00140   0.00000   0.00743   0.00720   2.06584
[...]
 **** Fit      -0.026718
 **** Fit      -0.029065
 **** Fit      -0.031229
 **** Fit      -0.032996
 **** Fit      -0.034157
 **** Fit      -0.034593
 **** Fit      -0.034313
 **** Fit      -0.033433
 **** Fit      -0.032084
 **** Fit      -0.030380
 **** Fit      -0.028431
 **** Fit      -0.026358
 **** Fit      -0.024277
 **** Fit      -0.022272
 **** Fit      -0.023429
 **** Fit      -0.025084
 **** Fit      -0.026386
 **** Fit      -0.027115
 **** Fit      -0.027141
 **** Fit      -0.026551
 **** Fit      -0.025679
 **** Fit      -0.024894
 **** Fit      -0.024308
 **** Fit      -0.023757
 **** Fit      -0.023030
 **** Fit      -0.022052
 **** Fit      -0.020869
 **** Fit      -0.019568
 **** Fit      -0.018840
 **** Fit      -0.020102
 **** Fit      -0.021072
 **** Fit      -0.021493
 **** Fit      -0.021100
 **** Fit      -0.019791
 **** Fit      -0.017887
 **** Fit      -0.016203
 **** Fit      -0.015542
 **** Fit      -0.015979
 **** Fit      -0.016877
 **** Fit      -0.017567
 **** Fit      -0.017763
 **** Fit      -0.017487
 **** Fit      -0.016874
 **** Fit      -0.016052
 **** Fit      -0.016157
 **** Fit      -0.016947
 **** Fit      -0.017328
 **** Fit      -0.016979
 **** Fit      -0.015547
 **** Fit      -0.012883
 **** Fit      -0.009511
 **** Fit      -0.007998
 **** Fit      -0.010493
 **** Fit      -0.012602
 **** Fit      -0.013876
 **** Fit      -0.014386
 **** Fit      -0.014354
 **** Fit      -0.013973
 **** Fit      -0.013696
 **** Fit      -0.014123
 **** Fit      -0.014082
 **** Fit      -0.013210
 **** Fit      -0.011071
 **** Fit      -0.007438
 **** Fit      -0.005585
 **** Fit      -0.008724
 **** Fit      -0.010729
 **** Fit      -0.011763
 **** Fit      -0.012129
 **** Fit      -0.012066
 **** Fit      -0.011525
 **** Fit      -0.011714
 **** Fit      -0.011449
 **** Fit      -0.010383
 **** Fit      -0.008088
 **** Fit      -0.004317
 **** Fit      -0.002955
 **** Fit      -0.006310
 **** Fit      -0.008496
 **** Fit      -0.009705
 **** Fit      -0.010250
 **** Fit      -0.010368
 **** Fit      -0.009665
 **** Fit      -0.009724
 **** Fit      -0.009406
 **** Fit      -0.008441
 **** Fit      -0.006508
 **** Fit      -0.003454
 **** Fit      -0.002504
 **** Fit      -0.005246
 **** Fit      -0.007089
 **** Fit      -0.008161
 **** Fit      -0.008695
 **** Fit      -0.008875
 **** Fit      -0.008101
 **** Fit      -0.008104
 **** Fit      -0.007835
 **** Fit      -0.007122
 **** Fit      -0.005787
 **** Fit      -0.003796
 **** Fit      -0.001527
 **** Fit       0.000100
 **** Fit       0.000198
 **** Fit      -0.001192
 **** Fit      -0.003180
 **** Fit      -0.004951
 **** Fit      -0.006204
 **** Fit      -0.006975
 **** Fit      -0.007389
 **** Fit      -0.007555
 **** Fit      -0.006793
 **** Fit      -0.006778
 **** Fit      -0.006587
 **** Fit      -0.006131
 **** Fit      -0.005339
 **** Fit      -0.004241
 **** Fit      -0.003070
 **** Fit      -0.002264
 **** Fit      -0.002205
 **** Fit      -0.002867
 **** Fit      -0.003859
 **** Fit      -0.004796
 **** Fit      -0.005503
 **** Fit      -0.005970
 **** Fit      -0.006244
 **** Fit      -0.006369
 **** Fit      -0.005674
 **** Fit      -0.005547
 **** Fit      -0.005277
 **** Fit      -0.004846
 **** Fit      -0.004295
 **** Fit      -0.003748
 **** Fit      -0.003387
 **** Fit      -0.003343
 **** Fit      -0.003600
 **** Fit      -0.004012
 **** Fit      -0.004431
 **** Fit      -0.004775
 **** Fit      -0.005027
 **** Fit      -0.005194
 **** Fit      -0.004737
 **** Fit      -0.004645
 **** Fit      -0.004478
 **** Fit      -0.004236
 **** Fit      -0.003951
 **** Fit      -0.003683
 **** Fit      -0.003499
 **** Fit      -0.003444
 **** Fit      -0.003508
 **** Fit      -0.003645
 **** Fit      -0.003808
 **** Fit      -0.003965
 **** Fit      -0.004102
 **** Fit      -0.003846
 **** Fit      -0.003719
 **** Fit      -0.003554
 **** Fit      -0.003369
 **** Fit      -0.003192
 **** Fit      -0.003054
 **** Fit      -0.002972
 **** Fit      -0.002949
 **** Fit      -0.002974
 **** Fit      -0.003035
 **** Fit      -0.003117
 **** Fit      -0.002865
 **** Fit      -0.002702
 **** Fit      -0.002540
 **** Fit      -0.002397
 **** Fit      -0.002290
 **** Fit      -0.002228
 **** Fit      -0.002213
 **** Fit      -0.002242
 **** Fit      -0.002305
 **** Fit      -0.002055
 **** Fit      -0.001886
 **** Fit      -0.001731
 **** Fit      -0.001608
 **** Fit      -0.001530
 **** Fit      -0.001502
 **** Fit      -0.001523
 **** Fit      -0.001307
 **** Fit      -0.001148
 **** Fit      -0.001020
 **** Fit      -0.000937
 **** Fit      -0.000905
 **** Fit      -0.041120
 **** Fit      -0.041404
 **** Fit      -0.040893
 **** Fit      -0.041379
 **** Fit      -0.042533
 **** Fit      -0.042857
 **** Fit      -0.042292
 **** Fit      -0.040893
 **** Fit      -0.040002
 **** Fit      -0.041970
 **** Fit      -0.043214
 **** Fit      -0.043565
 **** Fit      -0.042953
 **** Fit      -0.041441
 **** Fit      -0.039207
 **** Fit      -0.039642
 **** Fit      -0.041659
 **** Fit      -0.042934
 **** Fit      -0.043284
 **** Fit      -0.042635
 **** Fit      -0.041059
 **** Fit      -0.038750
 **** Fit      -0.038334
 **** Fit      -0.040279
 **** Fit      -0.041496
 **** Fit      -0.041803
 **** Fit      -0.041133
 **** Fit      -0.039564
 **** Fit      -0.037295
 **** Fit      -0.036029
 **** Fit      -0.037754
 **** Fit      -0.038795
 **** Fit      -0.039004
 **** Fit      -0.038332
 **** Fit      -0.036862
 **** Fit      -0.034779
 **** Fit      -0.030996
 **** Fit      -0.032793
 **** Fit      -0.034134
 **** Fit      -0.034871
 **** Fit      -0.034915
 **** Fit      -0.034263
 **** Fit      -0.032997
 **** Fit      -0.031261
 **** Fit      -0.029226
 **** Fit      -0.027056
 **** Fit      -0.025986
 **** Fit      -0.027565
 **** Fit      -0.028815
 **** Fit      -0.029620
 **** Fit      -0.029920
 **** Fit      -0.029732
 **** Fit      -0.029120
 **** Fit      -0.028164
 **** Fit      -0.026932
 **** Fit      -0.025491
 **** Fit      -0.023914
 **** Fit      -0.022279
 **** Fit      -0.021500
 **** Fit      -0.022782
 **** Fit      -0.023786
 **** Fit      -0.024390
 **** Fit      -0.024539
 **** Fit      -0.024287
 **** Fit      -0.023798
 **** Fit      -0.023244
 **** Fit      -0.022694
 **** Fit      -0.022102
 **** Fit      -0.021384
 **** Fit      -0.020502
 **** Fit      -0.019475
 **** Fit      -0.018351
 **** Fit      -0.018735
 **** Fit      -0.019530
 **** Fit      -0.019953
 **** Fit      -0.019886
 **** Fit      -0.019322
 **** Fit      -0.018444
 **** Fit      -0.017603
 **** Fit      -0.017118
 **** Fit      -0.017048
 **** Fit      -0.017181
 **** Fit      -0.017248
 **** Fit      -0.017086
 **** Fit      -0.016667
 **** Fit      -0.016038
 **** Fit      -0.015412
 **** Fit      -0.016079
 **** Fit      -0.016450
 **** Fit      -0.016368
 **** Fit      -0.015706
 **** Fit      -0.014486
 **** Fit      -0.013005
 **** Fit      -0.011816
 **** Fit      -0.011409
 **** Fit      -0.011827
 **** Fit      -0.012668
 **** Fit      -0.013461
 **** Fit      -0.013938
 **** Fit      -0.014045
 **** Fit      -0.013842
 **** Fit      -0.013276
 **** Fit      -0.013658
 **** Fit      -0.013714
 **** Fit      -0.013278
 **** Fit      -0.012216
 **** Fit      -0.010558
 **** Fit      -0.008672
 **** Fit      -0.007255
 **** Fit      -0.006929
 **** Fit      -0.007718
 **** Fit      -0.009069
 **** Fit      -0.010369
 **** Fit      -0.011284
 **** Fit      -0.011758
 **** Fit      -0.011861
 **** Fit      -0.011360
 **** Fit      -0.011546
 **** Fit      -0.011417
 **** Fit      -0.010820
 **** Fit      -0.009631
 **** Fit      -0.007887
 **** Fit      -0.005958
 **** Fit      -0.004552
 **** Fit      -0.004300
 **** Fit      -0.005214
 **** Fit      -0.006714
 **** Fit      -0.008168
 **** Fit      -0.009241
 **** Fit      -0.009878
 **** Fit      -0.010146
 **** Fit      -0.010139
 **** Fit      -0.009688
 **** Fit      -0.009759
 **** Fit      -0.009561
 **** Fit      -0.008975
 **** Fit      -0.007913
 **** Fit      -0.006418
 **** Fit      -0.004808
 **** Fit      -0.003657
 **** Fit      -0.003468
 **** Fit      -0.004249
 **** Fit      -0.005532
 **** Fit      -0.006800
 **** Fit      -0.007770
 **** Fit      -0.008385
 **** Fit      -0.008691
 **** Fit      -0.008267
 **** Fit      -0.008077
 **** Fit      -0.007606
 **** Fit      -0.006806
 **** Fit      -0.005730
 **** Fit      -0.004607
 **** Fit      -0.003818
 **** Fit      -0.003682
 **** Fit      -0.004203
 **** Fit      -0.005086
 **** Fit      -0.005988
 **** Fit      -0.006708
 **** Fit      -0.007189
 **** Fit      -0.007452
 **** Fit      -0.007019
 **** Fit      -0.006869
 **** Fit      -0.006538
 **** Fit      -0.006008
 **** Fit      -0.005331
 **** Fit      -0.004649
 **** Fit      -0.004176
 **** Fit      -0.004079
 **** Fit      -0.004360
 **** Fit      -0.004865
 **** Fit      -0.005405
 **** Fit      -0.005859
 **** Fit      -0.006180
 **** Fit      -0.006369
 **** Fit      -0.005854
 **** Fit      -0.005635
 **** Fit      -0.005309
 **** Fit      -0.004914
 **** Fit      -0.004530
 **** Fit      -0.004263
 **** Fit      -0.004188
 **** Fit      -0.004306
 **** Fit      -0.004549
 **** Fit      -0.004827
 **** Fit      -0.005078
 **** Fit      -0.005269
 **** Fit      -0.004973
 **** Fit      -0.004825
 **** Fit      -0.004621
 **** Fit      -0.004386
 **** Fit      -0.004164
 **** Fit      -0.004001
 **** Fit      -0.003932
 **** Fit      -0.003957
 **** Fit      -0.004051
 **** Fit      -0.004176
 **** Fit      -0.004304
 **** Fit      -0.004414
 **** Fit      -0.004080
 **** Fit      -0.003936
 **** Fit      -0.003775
 **** Fit      -0.003622
 **** Fit      -0.003500
 **** Fit      -0.003425
 **** Fit      -0.003401
 **** Fit      -0.003421
 **** Fit      -0.003471
 **** Fit      -0.003139
 **** Fit      -0.003007
 **** Fit      -0.002894
 **** Fit      -0.002810
 **** Fit      -0.002762
 **** Fit      -0.032999
 **** Fit      -0.028500
 **** Fit      -0.029423
 **** Fit      -0.029910
 **** Fit      -0.029920
 **** Fit      -0.029455
 **** Fit      -0.028566
 **** Fit      -0.027335
 **** Fit      -0.024520
 **** Fit      -0.025442
 **** Fit      -0.026034
 **** Fit      -0.026264
 **** Fit      -0.026142
 **** Fit      -0.025705
 **** Fit      -0.025000
 **** Fit      -0.024074
 **** Fit      -0.022971
 **** Fit      -0.021742
 **** Fit      -0.020754
 **** Fit      -0.021554
 **** Fit      -0.022072
 **** Fit      -0.022278
 **** Fit      -0.022202
 **** Fit      -0.021923
 **** Fit      -0.021523
 **** Fit      -0.021046
 **** Fit      -0.020487
 **** Fit      -0.019820
 **** Fit      -0.019034
 **** Fit      -0.018140
 **** Fit      -0.018118
 **** Fit      -0.018535
 **** Fit      -0.018643
 **** Fit      -0.018451
 **** Fit      -0.018053
 **** Fit      -0.017608
 **** Fit      -0.017252
 **** Fit      -0.017024
 **** Fit      -0.016858
 **** Fit      -0.016645
 **** Fit      -0.016308
 **** Fit      -0.015822
 **** Fit      -0.015216
 **** Fit      -0.015586
 **** Fit      -0.015668
 **** Fit      -0.015419
 **** Fit      -0.014877
 **** Fit      -0.014196
 **** Fit      -0.013605
 **** Fit      -0.013297
 **** Fit      -0.013306
 **** Fit      -0.013499
 **** Fit      -0.013693
 **** Fit      -0.013751
 **** Fit      -0.013621
 **** Fit      -0.013149
 **** Fit      -0.013285
 **** Fit      -0.013122
 **** Fit      -0.012626
 **** Fit      -0.011852
 **** Fit      -0.010988
 **** Fit      -0.010313
 **** Fit      -0.010055
 **** Fit      -0.010241
 **** Fit      -0.010693
 **** Fit      -0.011175
 **** Fit      -0.011516
 **** Fit      -0.011646
 **** Fit      -0.011569
 **** Fit      -0.011306
 **** Fit      -0.011290
 **** Fit      -0.010995
 **** Fit      -0.010393
 **** Fit      -0.009547
 **** Fit      -0.008650
 **** Fit      -0.007983
 **** Fit      -0.007774
 **** Fit      -0.008042
 **** Fit      -0.008602
 **** Fit      -0.009208
 **** Fit      -0.009683
 **** Fit      -0.009955
 **** Fit      -0.010022
 **** Fit      -0.009706
 **** Fit      -0.009617
 **** Fit      -0.009291
 **** Fit      -0.008714
 **** Fit      -0.007946
 **** Fit      -0.007158
 **** Fit      -0.006587
 **** Fit      -0.006422
 **** Fit      -0.006678
 **** Fit      -0.007198
 **** Fit      -0.007772
 **** Fit      -0.008245
 **** Fit      -0.008549
 **** Fit      -0.008678
 **** Fit      -0.008339
 **** Fit      -0.008231
 **** Fit      -0.007943
 **** Fit      -0.007471
 **** Fit      -0.006871
 **** Fit      -0.006269
 **** Fit      -0.005838
 **** Fit      -0.005711
 **** Fit      -0.005898
 **** Fit      -0.006290
 **** Fit      -0.006736
 **** Fit      -0.007118
 **** Fit      -0.007380
 **** Fit      -0.007075
 **** Fit      -0.006852
 **** Fit      -0.006508
 **** Fit      -0.006087
 **** Fit      -0.005674
 **** Fit      -0.005378
 **** Fit      -0.005280
 **** Fit      -0.005388
 **** Fit      -0.005635
 **** Fit      -0.005928
 **** Fit      -0.006192
 **** Fit      -0.006382
 **** Fit      -0.005929
 **** Fit      -0.005694
 **** Fit      -0.005416
 **** Fit      -0.005149
 **** Fit      -0.004954
 **** Fit      -0.004875
 **** Fit      -0.004917
 **** Fit      -0.005047
 **** Fit      -0.005214
 **** Fit      -0.005373
 **** Fit      -0.005117
 **** Fit      -0.004956
 **** Fit      -0.004771
 **** Fit      -0.004595
 **** Fit      -0.004460
 **** Fit      -0.004390
 **** Fit      -0.004389
 **** Fit      -0.004442
 **** Fit      -0.004524
 **** Fit      -0.004131
 **** Fit      -0.004002
 **** Fit      -0.003897
 **** Fit      -0.003829
 **** Fit      -0.003802
 **** Fit      -0.003811
 **** Fit      -0.023132
 **** Fit      -0.023319
 **** Fit      -0.023241
 **** Fit      -0.022920
 **** Fit      -0.022385
 **** Fit      -0.021669
 **** Fit      -0.020071
 **** Fit      -0.020292
 **** Fit      -0.020303
 **** Fit      -0.020139
 **** Fit      -0.019843
 **** Fit      -0.019443
 **** Fit      -0.018947
 **** Fit      -0.018353
 **** Fit      -0.017222
 **** Fit      -0.017411
 **** Fit      -0.017399
 **** Fit      -0.017233
 **** Fit      -0.016984
 **** Fit      -0.016718
 **** Fit      -0.016460
 **** Fit      -0.016192
 **** Fit      -0.015872
 **** Fit      -0.015469
 **** Fit      -0.014737
 **** Fit      -0.014908
 **** Fit      -0.014873
 **** Fit      -0.014658
 **** Fit      -0.014341
 **** Fit      -0.014023
 **** Fit      -0.013790
 **** Fit      -0.013663
 **** Fit      -0.013600
 **** Fit      -0.013526
 **** Fit      -0.013377
 **** Fit      -0.012800
 **** Fit      -0.012798
 **** Fit      -0.012600
 **** Fit      -0.012246
 **** Fit      -0.011829
 **** Fit      -0.011474
 **** Fit      -0.011274
 **** Fit      -0.011250
 **** Fit      -0.011340
 **** Fit      -0.011448
 **** Fit      -0.011491
 **** Fit      -0.011424
 **** Fit      -0.011074
 **** Fit      -0.010964
 **** Fit      -0.010679
 **** Fit      -0.010264
 **** Fit      -0.009818
 **** Fit      -0.009464
 **** Fit      -0.009297
 **** Fit      -0.009333
 **** Fit      -0.009507
 **** Fit      -0.009715
 **** Fit      -0.009870
 **** Fit      -0.009922
 **** Fit      -0.009578
 **** Fit      -0.009422
 **** Fit      -0.009121
 **** Fit      -0.008720
 **** Fit      -0.008308
 **** Fit      -0.007992
 **** Fit      -0.007856
 **** Fit      -0.007911
 **** Fit      -0.008099
 **** Fit      -0.008329
 **** Fit      -0.008520
 **** Fit      -0.008624
 **** Fit      -0.008143
 **** Fit      -0.007875
 **** Fit      -0.007537
 **** Fit      -0.007198
 **** Fit      -0.006942
 **** Fit      -0.006833
 **** Fit      -0.006878
 **** Fit      -0.007033
 **** Fit      -0.007230
 **** Fit      -0.007402
 **** Fit      -0.007073
 **** Fit      -0.006860
 **** Fit      -0.006600
 **** Fit      -0.006345
 **** Fit      -0.006151
 **** Fit      -0.006063
 **** Fit      -0.006085
 **** Fit      -0.006190
 **** Fit      -0.006329
 **** Fit      -0.006457
 **** Fit      -0.005998
 **** Fit      -0.005809
 **** Fit      -0.005625
 **** Fit      -0.005483
 **** Fit      -0.005409
 **** Fit      -0.005408
 **** Fit      -0.005464
 **** Fit      -0.005547
 **** Fit      -0.005098
 **** Fit      -0.004965
 **** Fit      -0.004857
 **** Fit      -0.004792
 **** Fit      -0.004773
 **** Fit      -0.018589
 **** Fit      -0.018490
 **** Fit      -0.018267
 **** Fit      -0.017936
 **** Fit      -0.016295
 **** Fit      -0.016241
 **** Fit      -0.016097
 **** Fit      -0.015894
 **** Fit      -0.015650
 **** Fit      -0.015362
 **** Fit      -0.014191
 **** Fit      -0.014136
 **** Fit      -0.013994
 **** Fit      -0.013812
 **** Fit      -0.013633
 **** Fit      -0.013469
 **** Fit      -0.013308
 **** Fit      -0.013122
 **** Fit      -0.012318
 **** Fit      -0.012172
 **** Fit      -0.011970
 **** Fit      -0.011768
 **** Fit      -0.011612
 **** Fit      -0.011514
 **** Fit      -0.011453
 **** Fit      -0.011390
 **** Fit      -0.010670
 **** Fit      -0.010474
 **** Fit      -0.010245
 **** Fit      -0.010042
 **** Fit      -0.009909
 **** Fit      -0.009856
 **** Fit      -0.009860
 **** Fit      -0.009876
 **** Fit      -0.009263
 **** Fit      -0.009057
 **** Fit      -0.008834
 **** Fit      -0.008647
 **** Fit      -0.008535
 **** Fit      -0.008507
 **** Fit      -0.008540
 **** Fit      -0.008593
 **** Fit      -0.008079
 **** Fit      -0.007891
 **** Fit      -0.007695
 **** Fit      -0.007535
 **** Fit      -0.007442
 **** Fit      -0.007422
 **** Fit      -0.007458
 **** Fit      -0.006921
 **** Fit      -0.006762
 **** Fit      -0.006631
 **** Fit      -0.006553
 **** Fit      -0.006533
 **** Fit      -0.006556
 -----------------------------------------------------------------
 Leave Link  602 at Thu Apr 21 11:20:38 2022, MaxMem=   104857600 cpu:               2.8 elap:               2.8
 (Enter /opt/ohpc/pub/libs/gaussian/g16-A.03/haswell/g16/l9999.exe)

 Test job not archived.
 1\1\GINC-CASCADEB025\SP\RB3LYP\6-311++G(d,p)\C11H13N1O2\MNG228\21-Apr-
 2022\0\\#P B3LYP/6-311++G(d,p) Geom=Allcheck SCF=Tight EmpiricalDisper
 sion=GD3BJ Pop=CHELPG SP IOp(6/33=2)\\MAA1-VP1 geo opt\\0,1\C,0,8.3764
 45743,11.5067942319,11.6712052351\C,0,8.1189676376,12.8162380933,12.36
 0936711\C,0,8.4060279075,14.0034569685,11.821034728\C,0,7.6257826123,1
 2.7044429621,13.782553048\O,0,7.9444910825,11.7668056659,14.4763320453
 \O,0,6.8502460597,13.6863791163,14.2547360769\H,0,8.7903511887,11.6632
 188675,10.6737614678\H,0,7.4536610629,10.9250187702,11.5838750184\H,0,
 9.0698742544,10.903755147,12.2612026899\H,0,8.839577731,14.0750365788,
 10.8291030886\H,0,8.2482856645,14.9321620289,12.3546573899\H,0,6.48140
 39208,14.2854145541,13.5494046247\C,0,1.9082761347,19.0229879541,11.47
 18966092\C,0,2.67227575,18.1107995115,10.866616077\C,0,3.6308275248,17
 .2061999035,11.5147747691\C,0,3.8672456793,17.1843172863,12.8970245076
 \C,0,4.7921924867,16.2928337084,13.4163639292\N,0,5.493326794,15.43573
 07554,12.6601030679\C,0,5.2737445869,15.446556475,11.3420349876\C,0,4.
 3640237522,16.3029262193,10.7349725049\H,0,1.2292669466,19.6446320325,
 10.9018005717\H,0,1.9273737597,19.1851637209,12.5433953208\H,0,2.60024
 2201,18.0034415283,9.7876878036\H,0,3.3390188559,17.8490400635,13.5678
 320106\H,0,4.9866106746,16.2531957874,14.4830533869\H,0,5.854028655,14
 .7413332923,10.756857372\H,0,4.2254313337,16.2681187771,9.6607849586\\
 Version=ES64L-G16RevA.03\State=1-A\HF=-632.4058181\RMSD=2.549e-09\Dipo
 le=-1.4928066,2.1993034,-2.0627868\Quadrupole=3.0293615,-1.6833605,-1.
 346001,-2.1147295,-5.7143212,10.169901\PG=C01 [X(C11H13N1O2)]\\@


 I FIND THAT THE THREE TRULY GREAT TIMES FOR THINKING THOUGHTS
 ARE WHEN I AM STANDING IN THE SHOWER, SITTING ON THE JOHN, OR WALKING.

                                    -- COLIN FLETCHER
 Job cpu time:       0 days  0 hours  7 minutes 24.2 seconds.
 Elapsed time:       0 days  0 hours  7 minutes 25.8 seconds.
 File lengths (MBytes):  RWF=    320 Int=      0 D2E=      0 Chk=     32 Scr=     32
 Normal termination of Gaussian 16 at Thu Apr 21 11:20:38 2022.
