 Entering Gaussian System, Link 0=g16
 Initial command:
 /opt/ohpc/pub/libs/gaussian/g16-A.03/haswell/g16/l1.exe "g16_scratch/Gau-326843.inp" -scrdir="g16_scratch/"
 Entering Link 1 = /opt/ohpc/pub/libs/gaussian/g16-A.03/haswell/g16/l1.exe PID=    326845.
  
 Copyright (c) 1988,1990,1992,1993,1995,1998,2003,2009,2016,
            Gaussian, Inc.  All Rights Reserved.
  
 This is part of the Gaussian(R) 16 program.  It is based on
 the Gaussian(R) 09 system (copyright 2009, Gaussian, Inc.),
 the Gaussian(R) 03 system (copyright 2003, Gaussian, Inc.),
 the Gaussian(R) 98 system (copyright 1998, Gaussian, Inc.),
 the Gaussian(R) 94 system (copyright 1995, Gaussian, Inc.),
 the Gaussian 92(TM) system (copyright 1992, Gaussian, Inc.),
 the Gaussian 90(TM) system (copyright 1990, Gaussian, Inc.),
 the Gaussian 88(TM) system (copyright 1988, Gaussian, Inc.),
 the Gaussian 86(TM) system (copyright 1986, Carnegie Mellon
 University), and the Gaussian 82(TM) system (copyright 1983,
 Carnegie Mellon University). Gaussian is a federally registered
 trademark of Gaussian, Inc.
  
 This software contains proprietary and confidential information,
 including trade secrets, belonging to Gaussian, Inc.
  
 This software is provided under written license and may be
 used, copied, transmitted, or stored only in accord with that
 written license.
  
 The following legend is applicable only to US Government
 contracts under FAR:
  
                    RESTRICTED RIGHTS LEGEND
  
 Use, reproduction and disclosure by the US Government is
 subject to restrictions as set forth in subparagraphs (a)
 and (c) of the Commercial Computer Software - Restricted
 Rights clause in FAR 52.227-19.
  
 Gaussian, Inc.
 340 Quinnipiac St., Bldg. 40, Wallingford CT 06492
  
  
 ---------------------------------------------------------------
 Warning -- This program may not be used in any manner that
 competes with the business of Gaussian, Inc. or will provide
 assistance to any competitor of Gaussian, Inc.  The licensee
 of this program is prohibited from giving any competitor of
 Gaussian, Inc. access to this program.  By using this program,
 the user acknowledges that Gaussian, Inc. is engaged in the
 business of creating and licensing software in the field of
 computational chemistry and represents and warrants to the
 licensee that it is not a competitor of Gaussian, Inc. and that
 it will not use this program in any manner prohibited above.
 ---------------------------------------------------------------
  

 Cite this work as:
 Gaussian 16, Revision A.03,
 M. J. Frisch, G. W. Trucks, H. B. Schlegel, G. E. Scuseria, 
 M. A. Robb, J. R. Cheeseman, G. Scalmani, V. Barone, 
 G. A. Petersson, H. Nakatsuji, X. Li, M. Caricato, A. V. Marenich, 
 J. Bloino, B. G. Janesko, R. Gomperts, B. Mennucci, H. P. Hratchian, 
 J. V. Ortiz, A. F. Izmaylov, J. L. Sonnenberg, D. Williams-Young, 
 F. Ding, F. Lipparini, F. Egidi, J. Goings, B. Peng, A. Petrone, 
 T. Henderson, D. Ranasinghe, V. G. Zakrzewski, J. Gao, N. Rega, 
 G. Zheng, W. Liang, M. Hada, M. Ehara, K. Toyota, R. Fukuda, 
 J. Hasegawa, M. Ishida, T. Nakajima, Y. Honda, O. Kitao, H. Nakai, 
 T. Vreven, K. Throssell, J. A. Montgomery, Jr., J. E. Peralta, 
 F. Ogliaro, M. J. Bearpark, J. J. Heyd, E. N. Brothers, K. N. Kudin, 
 V. N. Staroverov, T. A. Keith, R. Kobayashi, J. Normand, 
 K. Raghavachari, A. P. Rendell, J. C. Burant, S. S. Iyengar, 
 J. Tomasi, M. Cossi, J. M. Millam, M. Klene, C. Adamo, R. Cammi, 
 J. W. Ochterski, R. L. Martin, K. Morokuma, O. Farkas, 
 J. B. Foresman, and D. J. Fox, Gaussian, Inc., Wallingford CT, 2016.
 
 ******************************************
 Gaussian 16:  ES64L-G16RevA.03 25-Dec-2016
                21-Apr-2022 
 ******************************************
 %Mem=192GB
 %NProcShared=48
 Will use up to   48 processors via shared memory.
 %Chk=MAA1-VP1-2.chk
 ---------------------------------------------------------------------
 #n B3LYP/6-311++G(d,p) Opt freq EmpiricalDispersion=GD3BJ IOp(6/33=2)
 ---------------------------------------------------------------------
 1/18=20,19=15,26=3,38=1/1,3;
 2/9=110,12=2,17=6,18=5,40=1/2;
 3/5=4,6=6,7=1111,11=2,25=1,30=1,71=1,74=-5,124=41/1,2,3;
 4//1;
 5/5=2,38=5/2;
 6/7=2,8=2,9=2,10=2,28=1,33=2/1;
 7//1,2,3,16;
 1/18=20,19=15,26=3/3(2);
 2/9=110/2;
 99//99;
 2/9=110/2;
 3/5=4,6=6,7=1111,11=2,25=1,30=1,71=1,74=-5,124=41/1,2,3;
 4/5=5,16=3,69=1/1;
 5/5=2,38=5/2;
 7//1,2,3,16;
 1/18=20,19=15,26=3/3(-5);
 2/9=110/2;
 6/7=2,8=2,9=2,10=2,19=2,28=1,33=2/1;
 99/9=1/99;
 ----------------
 MAA1-VP1 geo opt
 ----------------
 Symbolic Z-matrix:
 Charge =  0 Multiplicity = 1
 C                     13.443    5.039     12.773 
 C                     12.572    3.855     12.533 
 C                     12.911    2.564     12.695 
 C                     11.197    4.086     11.951 
 O                     10.509    3.239     11.307 
 O                     10.777    5.335     12.006 
 H                     13.326    5.883     12.093 
 H                     14.476    4.736     12.599 
 H                     13.322    5.48      13.762 
 H                     13.917    2.386     13.043 
 H                     12.205    1.762     12.536 
 H                     11.344    5.634     12.701 
 C                     17.615    3.156     19.426 
 C                     16.283    3.129     19.305 
 C                     15.728    3.274     17.988 
 C                     16.427    3.286     16.772 
 C                     15.764    3.421     15.552 
 N                     14.406    3.677     15.466 
 C                     13.71     3.638     16.629 
 C                     14.35     3.478     17.852 
 H                     18.059    3.007     20.4 
 H                     18.396    3.265     18.688 
 H                     15.642    2.957     20.157 
 H                     17.507    3.277     16.739 
 H                     16.249    3.446     14.588 
 H                     12.651    3.836     16.708 
 H                     13.739    3.692     18.716 
 
 Add virtual bond connecting atoms N18        and H9         Dist= 5.12D+00.
 Add virtual bond connecting atoms N18        and H10        Dist= 5.27D+00.

 GradGradGradGradGradGradGradGradGradGradGradGradGradGradGradGradGradGrad
 Berny optimization.
 Initialization pass.
                           ----------------------------
                           !    Initial Parameters    !
                           ! (Angstroms and Degrees)  !
 --------------------------                            --------------------------
 ! Name  Definition              Value          Derivative Info.                !
 --------------------------------------------------------------------------------
 ! R1    R(1,2)                  1.4893         estimate D2E/DX2                !
 ! R2    R(1,7)                  1.0901         estimate D2E/DX2                !
 ! R3    R(1,8)                  1.0905         estimate D2E/DX2                !
 ! R4    R(1,9)                  1.0896         estimate D2E/DX2                !
 ! R5    R(2,3)                  1.3446         estimate D2E/DX2                !
 ! R6    R(2,4)                  1.5109         estimate D2E/DX2                !
 ! R7    R(3,10)                 1.0793         estimate D2E/DX2                !
 ! R8    R(3,11)                 1.0802         estimate D2E/DX2                !
 ! R9    R(4,5)                  1.2671         estimate D2E/DX2                !
 ! R10   R(4,6)                  1.3189         estimate D2E/DX2                !
 ! R11   R(6,12)                 0.9455         estimate D2E/DX2                !
 ! R12   R(9,18)                 2.7073         estimate D2E/DX2                !
 ! R13   R(10,18)                2.7887         estimate D2E/DX2                !
 ! R14   R(13,14)                1.3378         estimate D2E/DX2                !
 ! R15   R(13,21)                1.0807         estimate D2E/DX2                !
 ! R16   R(13,22)                1.08           estimate D2E/DX2                !
 ! R17   R(14,15)                1.4365         estimate D2E/DX2                !
 ! R18   R(14,23)                1.08           estimate D2E/DX2                !
 ! R19   R(15,16)                1.4026         estimate D2E/DX2                !
 ! R20   R(15,20)                1.3996         estimate D2E/DX2                !
 ! R21   R(16,17)                1.3951         estimate D2E/DX2                !
 ! R22   R(16,24)                1.0805         estimate D2E/DX2                !
 ! R23   R(17,18)                1.3846         estimate D2E/DX2                !
 ! R24   R(17,25)                1.0794         estimate D2E/DX2                !
 ! R25   R(18,19)                1.3559         estimate D2E/DX2                !
 ! R26   R(19,20)                1.3896         estimate D2E/DX2                !
 ! R27   R(19,26)                1.0802         estimate D2E/DX2                !
 ! R28   R(20,27)                1.0796         estimate D2E/DX2                !
 ! A1    A(2,1,7)              116.885          estimate D2E/DX2                !
 ! A2    A(2,1,8)              107.902          estimate D2E/DX2                !
 ! A3    A(2,1,9)              113.771          estimate D2E/DX2                !
 ! A4    A(7,1,8)              102.5479         estimate D2E/DX2                !
 ! A5    A(7,1,9)              103.9402         estimate D2E/DX2                !
 ! A6    A(8,1,9)              111.2526         estimate D2E/DX2                !
 ! A7    A(1,2,3)              126.6164         estimate D2E/DX2                !
 ! A8    A(1,2,4)              118.2139         estimate D2E/DX2                !
 ! A9    A(3,2,4)              115.0032         estimate D2E/DX2                !
 ! A10   A(2,3,10)             115.6083         estimate D2E/DX2                !
 ! A11   A(2,3,11)             122.0283         estimate D2E/DX2                !
 ! A12   A(10,3,11)            122.2899         estimate D2E/DX2                !
 ! A13   A(2,4,5)              125.9965         estimate D2E/DX2                !
 ! A14   A(2,4,6)              114.7428         estimate D2E/DX2                !
 ! A15   A(5,4,6)              118.7725         estimate D2E/DX2                !
 ! A16   A(4,6,12)              97.9997         estimate D2E/DX2                !
 ! A17   A(1,9,18)             104.9091         estimate D2E/DX2                !
 ! A18   A(3,10,18)            111.5464         estimate D2E/DX2                !
 ! A19   A(14,13,21)           119.1956         estimate D2E/DX2                !
 ! A20   A(14,13,22)           131.3183         estimate D2E/DX2                !
 ! A21   A(21,13,22)           109.4299         estimate D2E/DX2                !
 ! A22   A(13,14,15)           117.7478         estimate D2E/DX2                !
 ! A23   A(13,14,23)           121.5223         estimate D2E/DX2                !
 ! A24   A(15,14,23)           120.6661         estimate D2E/DX2                !
 ! A25   A(14,15,16)           127.0952         estimate D2E/DX2                !
 ! A26   A(14,15,20)           118.9586         estimate D2E/DX2                !
 ! A27   A(16,15,20)           113.9008         estimate D2E/DX2                !
 ! A28   A(15,16,17)           121.4758         estimate D2E/DX2                !
 ! A29   A(15,16,24)           121.6347         estimate D2E/DX2                !
 ! A30   A(17,16,24)           116.6865         estimate D2E/DX2                !
 ! A31   A(16,17,18)           122.5701         estimate D2E/DX2                !
 ! A32   A(16,17,25)           124.73           estimate D2E/DX2                !
 ! A33   A(18,17,25)           112.3915         estimate D2E/DX2                !
 ! A34   A(9,18,10)             72.0145         estimate D2E/DX2                !
 ! A35   A(9,18,17)            123.7063         estimate D2E/DX2                !
 ! A36   A(9,18,19)            110.7007         estimate D2E/DX2                !
 ! A37   A(10,18,17)            98.0685         estimate D2E/DX2                !
 ! A38   A(10,18,19)           129.9355         estimate D2E/DX2                !
 ! A39   A(17,18,19)           116.4141         estimate D2E/DX2                !
 ! A40   A(18,19,20)           121.453          estimate D2E/DX2                !
 ! A41   A(18,19,26)           124.1019         estimate D2E/DX2                !
 ! A42   A(20,19,26)           114.0952         estimate D2E/DX2                !
 ! A43   A(15,20,19)           123.7625         estimate D2E/DX2                !
 ! A44   A(15,20,27)           120.5514         estimate D2E/DX2                !
 ! A45   A(19,20,27)           114.889          estimate D2E/DX2                !
 ! D1    D(7,1,2,3)            143.552          estimate D2E/DX2                !
 ! D2    D(7,1,2,4)            -31.5027         estimate D2E/DX2                !
 ! D3    D(8,1,2,3)             28.733          estimate D2E/DX2                !
 ! D4    D(8,1,2,4)           -146.3216         estimate D2E/DX2                !
 ! D5    D(9,1,2,3)            -95.2199         estimate D2E/DX2                !
 ! D6    D(9,1,2,4)             89.7255         estimate D2E/DX2                !
 ! D7    D(2,1,9,18)            70.3379         estimate D2E/DX2                !
 ! D8    D(7,1,9,18)          -161.4596         estimate D2E/DX2                !
 ! D9    D(8,1,9,18)           -51.7823         estimate D2E/DX2                !
 ! D10   D(1,2,3,10)             0.575          estimate D2E/DX2                !
 ! D11   D(1,2,3,11)           177.522          estimate D2E/DX2                !
 ! D12   D(4,2,3,10)           175.7669         estimate D2E/DX2                !
 ! D13   D(4,2,3,11)            -7.2861         estimate D2E/DX2                !
 ! D14   D(1,2,4,5)            156.3431         estimate D2E/DX2                !
 ! D15   D(1,2,4,6)            -15.4897         estimate D2E/DX2                !
 ! D16   D(3,2,4,5)            -19.2782         estimate D2E/DX2                !
 ! D17   D(3,2,4,6)            168.889          estimate D2E/DX2                !
 ! D18   D(2,3,10,18)           57.2018         estimate D2E/DX2                !
 ! D19   D(11,3,10,18)        -119.7363         estimate D2E/DX2                !
 ! D20   D(2,4,6,12)           -21.1403         estimate D2E/DX2                !
 ! D21   D(5,4,6,12)           166.3943         estimate D2E/DX2                !
 ! D22   D(1,9,18,10)          -17.3917         estimate D2E/DX2                !
 ! D23   D(1,9,18,17)           70.3634         estimate D2E/DX2                !
 ! D24   D(1,9,18,19)         -144.1763         estimate D2E/DX2                !
 ! D25   D(3,10,18,9)          -49.6656         estimate D2E/DX2                !
 ! D26   D(3,10,18,17)        -172.5714         estimate D2E/DX2                !
 ! D27   D(3,10,18,19)          52.6274         estimate D2E/DX2                !
 ! D28   D(21,13,14,15)       -177.4195         estimate D2E/DX2                !
 ! D29   D(21,13,14,23)         -0.305          estimate D2E/DX2                !
 ! D30   D(22,13,14,15)         -0.4642         estimate D2E/DX2                !
 ! D31   D(22,13,14,23)        176.6503         estimate D2E/DX2                !
 ! D32   D(13,14,15,16)          8.1565         estimate D2E/DX2                !
 ! D33   D(13,14,15,20)       -169.2345         estimate D2E/DX2                !
 ! D34   D(23,14,15,16)       -168.984          estimate D2E/DX2                !
 ! D35   D(23,14,15,20)         13.6251         estimate D2E/DX2                !
 ! D36   D(14,15,16,17)        179.3164         estimate D2E/DX2                !
 ! D37   D(14,15,16,24)         -6.0344         estimate D2E/DX2                !
 ! D38   D(20,15,16,17)         -3.1805         estimate D2E/DX2                !
 ! D39   D(20,15,16,24)        171.4687         estimate D2E/DX2                !
 ! D40   D(14,15,20,19)        179.6315         estimate D2E/DX2                !
 ! D41   D(14,15,20,27)         10.3881         estimate D2E/DX2                !
 ! D42   D(16,15,20,19)          1.9076         estimate D2E/DX2                !
 ! D43   D(16,15,20,27)       -167.3359         estimate D2E/DX2                !
 ! D44   D(15,16,17,18)          6.2754         estimate D2E/DX2                !
 ! D45   D(15,16,17,25)        179.4058         estimate D2E/DX2                !
 ! D46   D(24,16,17,18)       -168.6264         estimate D2E/DX2                !
 ! D47   D(24,16,17,25)          4.504          estimate D2E/DX2                !
 ! D48   D(16,17,18,9)         136.25           estimate D2E/DX2                !
 ! D49   D(16,17,18,10)       -150.0293         estimate D2E/DX2                !
 ! D50   D(16,17,18,19)         -7.437          estimate D2E/DX2                !
 ! D51   D(25,17,18,9)         -37.6469         estimate D2E/DX2                !
 ! D52   D(25,17,18,10)         36.0738         estimate D2E/DX2                !
 ! D53   D(25,17,18,19)        178.6661         estimate D2E/DX2                !
 ! D54   D(9,18,19,20)        -142.2075         estimate D2E/DX2                !
 ! D55   D(9,18,19,26)          30.5948         estimate D2E/DX2                !
 ! D56   D(10,18,19,20)        134.3461         estimate D2E/DX2                !
 ! D57   D(10,18,19,26)        -52.8515         estimate D2E/DX2                !
 ! D58   D(17,18,19,20)          6.0135         estimate D2E/DX2                !
 ! D59   D(17,18,19,26)        178.8158         estimate D2E/DX2                !
 ! D60   D(18,19,20,15)         -3.5639         estimate D2E/DX2                !
 ! D61   D(18,19,20,27)        166.2305         estimate D2E/DX2                !
 ! D62   D(26,19,20,15)       -177.0381         estimate D2E/DX2                !
 ! D63   D(26,19,20,27)         -7.2437         estimate D2E/DX2                !
 --------------------------------------------------------------------------------
 Trust Radius=3.00D-01 FncErr=1.00D-07 GrdErr=1.00D-06 EigMax=2.50D+02 EigMin=1.00D-04
 Number of steps in this run=    146 maximum allowed number of steps=    162.
 GradGradGradGradGradGradGradGradGradGradGradGradGradGradGradGradGradGrad

                          Input orientation:                          
 ---------------------------------------------------------------------
 Center     Atomic      Atomic             Coordinates (Angstroms)
 Number     Number       Type             X           Y           Z
 ---------------------------------------------------------------------
      1          6           0       13.443000    5.039000   12.773000
      2          6           0       12.572000    3.855000   12.533000
      3          6           0       12.911000    2.564000   12.695000
      4          6           0       11.197000    4.086000   11.951000
      5          8           0       10.509000    3.239000   11.307000
      6          8           0       10.777000    5.335000   12.006000
      7          1           0       13.326000    5.883000   12.093000
      8          1           0       14.476000    4.736000   12.599000
      9          1           0       13.322000    5.480000   13.762000
     10          1           0       13.917000    2.386000   13.043000
     11          1           0       12.205000    1.762000   12.536000
     12          1           0       11.344000    5.634000   12.701000
     13          6           0       17.615000    3.156000   19.426000
     14          6           0       16.283000    3.129000   19.305000
     15          6           0       15.728000    3.274000   17.988000
     16          6           0       16.427000    3.286000   16.772000
     17          6           0       15.764000    3.421000   15.552000
     18          7           0       14.406000    3.677000   15.466000
     19          6           0       13.710000    3.638000   16.629000
     20          6           0       14.350000    3.478000   17.852000
     21          1           0       18.059000    3.007000   20.400000
     22          1           0       18.396000    3.265000   18.688000
     23          1           0       15.642000    2.957000   20.157000
     24          1           0       17.507000    3.277000   16.739000
     25          1           0       16.249000    3.446000   14.588000
     26          1           0       12.651000    3.836000   16.708000
     27          1           0       13.739000    3.692000   18.716000
 ---------------------------------------------------------------------
                    Distance matrix (angstroms):
                    1          2          3          4          5
     1  C    0.000000
     2  C    1.489328   0.000000
     3  C    2.532732   1.344562   0.000000
     4  C    2.574570   1.510864   2.409941   0.000000
     5  O    3.741325   2.477600   2.855131   1.267079   0.000000
     6  O    2.789885   2.385404   3.564704   1.318873   2.225678
     7  H    1.090149   2.207918   3.398586   2.789626   3.942591
     8  H    1.090493   2.098984   2.678810   3.405032   4.432534
     9  H    1.089607   2.171075   3.132166   3.120670   4.354546
    10  H    2.708502   2.055988   1.079270   3.388342   3.918644
    11  H    3.511060   2.124935   1.080241   2.599859   2.562886
    12  H    2.182890   2.168190   3.446799   1.726387   2.894216
    13  C    8.075499   8.569358   8.233131   9.896022  10.789823
    14  C    7.374329   7.756196   7.441889   8.992472   9.865048
    15  C    5.960929   6.328896   6.037834   7.591750   8.477909
    16  C    5.288598   5.757943   5.431894   7.157859   8.055505
    17  C    3.965830   4.414927   4.127530   5.853795   6.757823
    18  N    3.167753   3.463774   3.339496   4.777048   5.716269
    19  C    4.111305   4.256683   4.155506   5.329123   6.223286
    20  C    5.390326   5.620958   5.431461   6.718100   7.592590
    21  H    9.143720   9.628913   9.277132  10.937865  11.821124
    22  H    7.916218   8.494180   8.154304   9.893776  10.802065
    23  H    7.980838   8.267810   7.955769   9.400591  10.234731
    24  H    5.945578   6.509896   6.163239   7.962131   8.858898
    25  H    3.702095   4.232096   3.937463   5.734638   6.614787
    26  H    4.190310   4.175791   4.217790   4.980529   5.840837
    27  H    6.100924   6.294279   6.181457   7.237557   8.095146
                    6          7          8          9         10
     6  O    0.000000
     7  H    2.608692   0.000000
     8  H    3.793817   1.701219   0.000000
     9  H    3.095414   1.716970   1.799395   0.000000
    10  H    4.430753   3.671620   2.456037   3.231690   0.000000
    11  H    3.884123   4.293662   3.742471   4.071153   1.891393
    12  H    0.945471   2.088059   3.259790   2.249871   4.157739
    13  C   10.322920   8.922160   7.678389   7.477414   7.416926
    14  C    9.405205   8.266880   7.128684   6.709663   6.735180
    15  C    8.033956   6.879499   5.722436   5.339883   5.340533
    16  C    7.670440   6.184954   4.829372   4.849202   4.584271
    17  C    6.411527   4.895914   3.479709   3.661550   3.282943
    18  N    5.281118   4.172525   3.057134   2.707301   2.788679
    19  C    5.731878   5.075705   4.246559   3.429752   3.803912
    20  C    7.098626   6.324451   5.403004   4.668285   4.950397
    21  H   11.353693   9.983933   8.756879   8.521616   8.465651
    22  H   10.343268   8.720828   7.389598   7.410612   7.259484
    23  H    9.785801   8.885574   7.851609   7.255615   7.342388
    24  H    8.481129   6.771803   5.334346   5.588377   5.228996
    25  H    6.338598   4.550596   2.960363   3.658792   2.991463
    26  H    5.278985   5.093531   4.585249   3.439752   4.139744
    27  H    7.516448   6.988217   6.249063   5.283271   5.824109
                   11         12         13         14         15
    11  H    0.000000
    12  H    3.970004   0.000000
    13  C    8.870368   9.523211   0.000000
    14  C    8.019859   8.618675   1.337757   0.000000
    15  C    6.664981   7.262329   2.375402   1.436502   0.000000
    16  C    6.171836   6.922646   2.910663   2.541943   1.402641
    17  C    4.951264   5.706310   4.301663   3.799952   2.440697
    18  N    4.134795   4.566281   5.123546   4.308289   2.875861
    19  C    4.747320   5.001115   4.827479   3.747050   2.460021
    20  C    5.983773   6.341701   3.638871   2.443256   1.399641
    21  H    9.882400  10.548315   1.080747   2.089996   3.364906
    22  H    8.856331   9.549190   1.080040   2.205437   2.758316
    23  H    8.445155   9.012828   2.113455   1.079986   2.193729
    24  H    6.933371   7.735856   2.691890   2.846829   2.173672
    25  H    4.837406   5.692727   5.035504   4.727762   3.443984
    26  H    4.680382   4.582259   5.700107   4.520584   3.379671
    27  H    6.653605   6.759261   3.976779   2.671297   2.158895
                   16         17         18         19         20
    16  C    0.000000
    17  C    1.395061   0.000000
    18  N    2.437818   1.384592   0.000000
    19  C    2.743436   2.329363   1.355915   0.000000
    20  C    2.348871   2.700490   2.394939   1.389579   0.000000
    21  H    3.987938   5.379733   6.175570   5.790717   4.524470
    22  H    2.747446   4.097103   5.145010   5.131979   4.136953
    23  H    3.490371   4.629925   4.904241   4.079604   2.693275
    24  H    1.080542   2.113706   3.375904   3.815708   3.353479
    25  H    2.197075   1.079419   2.054481   3.263291   3.776363
    26  H    3.816382   3.346540   2.155892   1.080243   2.079303
    27  H    3.342053   3.766293   3.317772   2.087900   1.079636
                   21         22         23         24         25
    21  H    0.000000
    22  H    1.763825   0.000000
    23  H    2.429699   3.136454   0.000000
    24  H    3.712213   2.142211   3.906834   0.000000
    25  H    6.103127   4.631670   5.623285   2.497584   0.000000
    26  H    6.600346   6.103398   4.649121   4.888167   4.194294
    27  H    4.686948   4.676619   2.497622   4.275345   4.837458
                   26         27
    26  H    0.000000
    27  H    2.288350   0.000000
 Stoichiometry    C11H13NO2
 Framework group  C1[X(C11H13NO2)]
 Deg. of freedom    75
 Full point group                 C1      NOp   1
 Largest Abelian subgroup         C1      NOp   1
 Largest concise Abelian subgroup C1      NOp   1
                         Standard orientation:                         
 ---------------------------------------------------------------------
 Center     Atomic      Atomic             Coordinates (Angstroms)
 Number     Number       Type             X           Y           Z
 ---------------------------------------------------------------------
      1          6           0       -2.275833   -0.882841   -1.190314
      2          6           0       -2.859754   -0.452293    0.110363
      3          6           0       -2.389238   -0.742635    1.335990
      4          6           0       -4.169184    0.301183    0.090981
      5          8           0       -5.000824    0.373717    1.044187
      6          8           0       -4.511280    0.783223   -1.088016
      7          1           0       -2.976795   -1.124063   -1.989619
      8          1           0       -1.763576   -1.832078   -1.029953
      9          1           0       -1.610279   -0.145646   -1.638449
     10          1           0       -1.492039   -1.341982    1.361321
     11          1           0       -2.851316   -0.357279    2.233156
     12          1           0       -3.652450    0.785704   -1.483389
     13          6           0        5.705827   -0.313495   -0.102827
     14          6           0        4.816031    0.661661    0.113797
     15          6           0        3.422554    0.313826    0.086030
     16          6           0        2.873583   -0.974768    0.011491
     17          6           0        1.493628   -1.179436    0.005930
     18          7           0        0.585583   -0.135958   -0.054916
     19          6           0        1.097166    1.115564    0.047459
     20          6           0        2.468442    1.337857    0.080895
     21          1           0        6.760949   -0.086641   -0.045650
     22          1           0        5.575061   -1.367551   -0.298666
     23          1           0        5.127851    1.668523    0.349101
     24          1           0        3.494245   -1.847918   -0.129785
     25          1           0        1.015405   -2.144970   -0.058814
     26          1           0        0.505228    2.017801   -0.002595
     27          1           0        2.766138    2.364553   -0.070385
 ---------------------------------------------------------------------
 Rotational constants (GHZ):           2.2337964           0.2065774           0.2031590
 Standard basis: 6-311++G(d,p) (5D, 7F)
 There are   413 symmetry adapted cartesian basis functions of A   symmetry.
 There are   399 symmetry adapted basis functions of A   symmetry.
   399 basis functions,   621 primitive gaussians,   413 cartesian basis functions
    51 alpha electrons       51 beta electrons
       nuclear repulsion energy       780.0790716694 Hartrees.
 NAtoms=   27 NActive=   27 NUniq=   27 SFac= 1.00D+00 NAtFMM=   60 NAOKFM=F Big=F
 Integral buffers will be    131072 words long.
 Raffenetti 2 integral format.
 Two-electron integral symmetry is turned on.
 Nuclear repulsion after empirical dispersion term =      780.0325807931 Hartrees.
 One-electron integrals computed using PRISM.
 NBasis=   399 RedAO= T EigKep=  1.66D-06  NBF=   399
 NBsUse=   399 1.00D-06 EigRej= -1.00D+00 NBFU=   399
 ExpMin= 3.60D-02 ExpMax= 8.59D+03 ExpMxC= 1.30D+03 IAcc=3 IRadAn=         5 AccDes= 0.00D+00
 Harris functional with IExCor=  402 and IRadAn=       5 diagonalized for initial guess.
 HarFok:  IExCor=  402 AccDes= 0.00D+00 IRadAn=         5 IDoV= 1 UseB2=F ITyADJ=14
 ICtDFT=  3500011 ScaDFX=  1.000000  1.000000  1.000000  1.000000
 FoFCou: FMM=F IPFlag=           0 FMFlag=      100000 FMFlg1=           0
         NFxFlg=           0 DoJE=T BraDBF=F KetDBF=T FulRan=T
         wScrn=  0.000000 ICntrl=       500 IOpCl=  0 I1Cent=   200000004 NGrid=           0
         NMat0=    1 NMatS0=      1 NMatT0=    0 NMatD0=    1 NMtDS0=    0 NMtDT0=    0
 Petite list used in FoFCou.
 Requested convergence on RMS density matrix=1.00D-08 within 128 cycles.
 Requested convergence on MAX density matrix=1.00D-06.
 Requested convergence on             energy=1.00D-06.
 No special actions if energy rises.
 SCF Done:  E(RB3LYP) =  -632.349960882     A.U. after   16 cycles
            NFock= 16  Conv=0.31D-08     -V/T= 2.0042
 SCF density gives NOpUse=  1 NOpAll=  1.

 **********************************************************************

            Population analysis using the SCF density.

 **********************************************************************

 Orbital symmetries:
 BldTbl:  Degeneracy threshold= 1.00D-02
       Occupied  (A) (A) (A) (A) (A) (A) (A) (A) (A) (A) (A) (A)
                 (A) (A) (A) (A) (A) (A) (A) (A) (A) (A) (A) (A)
                 (A) (A) (A) (A) (A) (A) (A) (A) (A) (A) (A) (A)
                 (A) (A) (A) (A) (A) (A) (A) (A) (A) (A) (A) (A)
                 (A) (A) (A)
       Virtual   (A) (A) (A) (A) (A) (A) (A) (A) (A) (A) (A) (A)
                 (A) (A) (A) (A) (A) (A) (A) (A) (A) (A) (A) (A)
                 (A) (A) (A) (A) (A) (A) (A) (A) (A) (A) (A) (A)
                 (A) (A) (A) (A) (A) (A) (A) (A) (A) (A) (A) (A)
                 (A) (A) (A) (A) (A) (A) (A) (A) (A) (A) (A) (A)
                 (A) (A) (A) (A) (A) (A) (A) (A) (A) (A) (A) (A)
                 (A) (A) (A) (A) (A) (A) (A) (A) (A) (A) (A) (A)
                 (A) (A) (A) (A) (A) (A) (A) (A) (A) (A) (A) (A)
                 (A) (A) (A) (A) (A) (A) (A) (A) (A) (A) (A) (A)
                 (A) (A) (A) (A) (A) (A) (A) (A) (A) (A) (A) (A)
                 (A) (A) (A) (A) (A) (A) (A) (A) (A) (A) (A) (A)
                 (A) (A) (A) (A) (A) (A) (A) (A) (A) (A) (A) (A)
                 (A) (A) (A) (A) (A) (A) (A) (A) (A) (A) (A) (A)
                 (A) (A) (A) (A) (A) (A) (A) (A) (A) (A) (A) (A)
                 (A) (A) (A) (A) (A) (A) (A) (A) (A) (A) (A) (A)
                 (A) (A) (A) (A) (A) (A) (A) (A) (A) (A) (A) (A)
                 (A) (A) (A) (A) (A) (A) (A) (A) (A) (A) (A) (A)
                 (A) (A) (A) (A) (A) (A) (A) (A) (A) (A) (A) (A)
                 (A) (A) (A) (A) (A) (A) (A) (A) (A) (A) (A) (A)
                 (A) (A) (A) (A) (A) (A) (A) (A) (A) (A) (A) (A)
                 (A) (A) (A) (A) (A) (A) (A) (A) (A) (A) (A) (A)
                 (A) (A) (A) (A) (A) (A) (A) (A) (A) (A) (A) (A)
                 (A) (A) (A) (A) (A) (A) (A) (A) (A) (A) (A) (A)
                 (A) (A) (A) (A) (A) (A) (A) (A) (A) (A) (A) (A)
                 (A) (A) (A) (A) (A) (A) (A) (A) (A) (A) (A) (A)
                 (A) (A) (A) (A) (A) (A) (A) (A) (A) (A) (A) (A)
                 (A) (A) (A) (A) (A) (A) (A) (A) (A) (A) (A) (A)
                 (A) (A) (A) (A) (A) (A) (A) (A) (A) (A) (A) (A)
                 (A) (A) (A) (A) (A) (A) (A) (A) (A) (A) (A) (A)
 The electronic state is 1-A.
 Alpha  occ. eigenvalues --  -19.17524 -19.09305 -14.33020 -10.29993 -10.22997
 Alpha  occ. eigenvalues --  -10.22463 -10.21905 -10.20752 -10.20369 -10.20120
 Alpha  occ. eigenvalues --  -10.19702 -10.19508 -10.18300 -10.18277  -1.12452
 Alpha  occ. eigenvalues --   -0.98923  -0.94886  -0.85738  -0.81970  -0.78195
 Alpha  occ. eigenvalues --   -0.77793  -0.71197  -0.67069  -0.64616  -0.63763
 Alpha  occ. eigenvalues --   -0.59946  -0.59768  -0.54201  -0.51326  -0.51147
 Alpha  occ. eigenvalues --   -0.48781  -0.47266  -0.46730  -0.46080  -0.44750
 Alpha  occ. eigenvalues --   -0.44462  -0.43644  -0.42395  -0.41649  -0.40666
 Alpha  occ. eigenvalues --   -0.39587  -0.38762  -0.37993  -0.36512  -0.34947
 Alpha  occ. eigenvalues --   -0.31555  -0.28420  -0.28039  -0.27451  -0.26500
 Alpha  occ. eigenvalues --   -0.25836
 Alpha virt. eigenvalues --   -0.08314  -0.05515  -0.04184  -0.01975  -0.01010
 Alpha virt. eigenvalues --   -0.00757   0.00211   0.00569   0.01015   0.01974
 Alpha virt. eigenvalues --    0.02977   0.03165   0.03294   0.04191   0.04502
 Alpha virt. eigenvalues --    0.05029   0.05368   0.05772   0.06270   0.06914
 Alpha virt. eigenvalues --    0.07974   0.08154   0.08333   0.08742   0.08788
 Alpha virt. eigenvalues --    0.09561   0.09834   0.09946   0.10431   0.10715
 Alpha virt. eigenvalues --    0.11025   0.11275   0.11445   0.12143   0.12346
 Alpha virt. eigenvalues --    0.12975   0.13068   0.13529   0.13681   0.13927
 Alpha virt. eigenvalues --    0.14099   0.14127   0.14732   0.14858   0.15536
 Alpha virt. eigenvalues --    0.15688   0.16064   0.16641   0.17210   0.17804
 Alpha virt. eigenvalues --    0.18084   0.18441   0.18620   0.19155   0.19914
 Alpha virt. eigenvalues --    0.20459   0.20632   0.21379   0.21807   0.22038
 Alpha virt. eigenvalues --    0.22663   0.22736   0.22979   0.23674   0.23960
 Alpha virt. eigenvalues --    0.24682   0.24979   0.25377   0.26199   0.26796
 Alpha virt. eigenvalues --    0.27137   0.27406   0.28555   0.29113   0.29505
 Alpha virt. eigenvalues --    0.29818   0.30357   0.30598   0.30841   0.30910
 Alpha virt. eigenvalues --    0.31561   0.32052   0.32326   0.32870   0.33300
 Alpha virt. eigenvalues --    0.33707   0.34733   0.35166   0.35493   0.36060
 Alpha virt. eigenvalues --    0.36454   0.37048   0.37443   0.39385   0.40200
 Alpha virt. eigenvalues --    0.41019   0.42383   0.43563   0.47354   0.47829
 Alpha virt. eigenvalues --    0.48474   0.49342   0.50448   0.52026   0.53018
 Alpha virt. eigenvalues --    0.53481   0.54426   0.54713   0.55518   0.55889
 Alpha virt. eigenvalues --    0.56793   0.57175   0.57978   0.59089   0.59335
 Alpha virt. eigenvalues --    0.60848   0.62657   0.62937   0.63819   0.64161
 Alpha virt. eigenvalues --    0.64670   0.65112   0.65552   0.66582   0.67598
 Alpha virt. eigenvalues --    0.68465   0.68898   0.70216   0.71042   0.72394
 Alpha virt. eigenvalues --    0.73213   0.74052   0.74693   0.74887   0.75946
 Alpha virt. eigenvalues --    0.77159   0.77279   0.78301   0.79458   0.79918
 Alpha virt. eigenvalues --    0.81459   0.82637   0.83816   0.84670   0.85391
 Alpha virt. eigenvalues --    0.86645   0.86953   0.88057   0.88886   0.90156
 Alpha virt. eigenvalues --    0.90602   0.91810   0.93448   0.93907   0.94907
 Alpha virt. eigenvalues --    0.97091   0.98811   1.01322   1.01772   1.02328
 Alpha virt. eigenvalues --    1.05028   1.05465   1.06690   1.06893   1.07410
 Alpha virt. eigenvalues --    1.08960   1.09625   1.11561   1.11920   1.12170
 Alpha virt. eigenvalues --    1.14619   1.17506   1.19210   1.21145   1.22402
 Alpha virt. eigenvalues --    1.23969   1.25400   1.29923   1.31694   1.33102
 Alpha virt. eigenvalues --    1.39368   1.39694   1.43143   1.43838   1.44695
 Alpha virt. eigenvalues --    1.44748   1.46290   1.47125   1.47859   1.49632
 Alpha virt. eigenvalues --    1.51018   1.52486   1.54378   1.55143   1.55851
 Alpha virt. eigenvalues --    1.56762   1.57412   1.58053   1.58535   1.61234
 Alpha virt. eigenvalues --    1.61851   1.62564   1.63747   1.66034   1.67513
 Alpha virt. eigenvalues --    1.68645   1.71649   1.72982   1.73540   1.74815
 Alpha virt. eigenvalues --    1.74965   1.75956   1.76650   1.77197   1.79679
 Alpha virt. eigenvalues --    1.80635   1.81071   1.81923   1.85277   1.86289
 Alpha virt. eigenvalues --    1.87161   1.88904   1.89432   1.91113   1.93812
 Alpha virt. eigenvalues --    1.94602   1.97938   1.98848   2.01785   2.03099
 Alpha virt. eigenvalues --    2.03641   2.05390   2.06886   2.08042   2.09368
 Alpha virt. eigenvalues --    2.12178   2.13911   2.16935   2.17471   2.21154
 Alpha virt. eigenvalues --    2.22504   2.23312   2.24719   2.25371   2.31949
 Alpha virt. eigenvalues --    2.32056   2.33983   2.36409   2.38853   2.39874
 Alpha virt. eigenvalues --    2.45820   2.46111   2.46741   2.48415   2.50636
 Alpha virt. eigenvalues --    2.53527   2.56483   2.57171   2.57941   2.59123
 Alpha virt. eigenvalues --    2.59651   2.62024   2.62903   2.65453   2.68295
 Alpha virt. eigenvalues --    2.69792   2.70515   2.70992   2.71794   2.72697
 Alpha virt. eigenvalues --    2.73516   2.74020   2.76087   2.77402   2.78279
 Alpha virt. eigenvalues --    2.79617   2.80544   2.81673   2.82954   2.84261
 Alpha virt. eigenvalues --    2.85781   2.87147   2.87801   2.89316   2.90101
 Alpha virt. eigenvalues --    2.93619   2.94349   2.95579   2.97249   2.99373
 Alpha virt. eigenvalues --    3.02510   3.02980   3.07175   3.09780   3.17572
 Alpha virt. eigenvalues --    3.19989   3.22163   3.25146   3.26969   3.29258
 Alpha virt. eigenvalues --    3.33461   3.37240   3.39058   3.43177   3.47076
 Alpha virt. eigenvalues --    3.53350   3.54194   3.58169   3.59760   3.66547
 Alpha virt. eigenvalues --    3.70637   3.72340   3.74741   3.77020   3.78272
 Alpha virt. eigenvalues --    3.85432   3.88270   3.94663   3.99174   4.05458
 Alpha virt. eigenvalues --    4.08540   4.09305   4.25276   4.32174   4.37471
 Alpha virt. eigenvalues --    4.40948   4.56169   4.97988   5.07731   5.16232
 Alpha virt. eigenvalues --    5.18394   5.45654   5.59249   5.87703  23.63970
 Alpha virt. eigenvalues --   23.73295  23.76628  23.84159  23.89084  23.98108
 Alpha virt. eigenvalues --   23.99055  24.07070  24.10849  24.20544  24.23682
 Alpha virt. eigenvalues --   35.59320  49.87399  50.00388
          Condensed to atoms (all electrons):
               1          2          3          4          5          6
     1  C    8.679452  -1.904453  -0.819338  -0.410632  -0.021502   0.237933
     2  C   -1.904453   8.084908  -0.418585  -0.076456  -0.124296  -0.354643
     3  C   -0.819338  -0.418585   6.865020  -0.050952   0.040214   0.005510
     4  C   -0.410632  -0.076456  -0.050952   6.398047   0.445326   0.059857
     5  O   -0.021502  -0.124296   0.040214   0.445326   8.091344  -0.120524
     6  O    0.237933  -0.354643   0.005510   0.059857  -0.120524   8.053378
     7  H    0.637405  -0.230774  -0.007288  -0.077906  -0.001745   0.027025
     8  H    0.323780  -0.011336   0.033723   0.003415  -0.000014  -0.001677
     9  H    0.213965   0.131123  -0.010402   0.048913  -0.003390  -0.014640
    10  H   -0.108711   0.004562   0.382667   0.046349   0.006293   0.003241
    11  H    0.097795  -0.053626   0.331749  -0.026476  -0.001142   0.004297
    12  H   -0.212599   0.186159   0.038246   0.007624   0.016333   0.193130
    13  C    0.000538   0.000072  -0.001025   0.000046   0.000000   0.000002
    14  C    0.027406  -0.025691   0.003042   0.000727  -0.000000   0.000033
    15  C   -0.004750  -0.002392  -0.018365   0.003378   0.000003   0.000319
    16  C   -0.225086   0.307933  -0.080900  -0.016710  -0.000017  -0.000258
    17  C    0.132448  -0.230264   0.082260   0.028556  -0.000331   0.000014
    18  N    0.072638  -0.049223  -0.097136  -0.017550  -0.000118   0.002505
    19  C   -0.247394   0.269498   0.043570  -0.021463   0.000317  -0.002992
    20  C    0.220053  -0.177792  -0.043991   0.025268  -0.000014  -0.000135
    21  H    0.000018  -0.000036   0.000022  -0.000001  -0.000000   0.000000
    22  H    0.000325  -0.000130  -0.000181   0.000018   0.000000   0.000001
    23  H   -0.000525   0.000494  -0.000068  -0.000009  -0.000000  -0.000000
    24  H   -0.002412   0.001450   0.002172  -0.000313  -0.000004  -0.000024
    25  H    0.014775  -0.011661  -0.001434   0.001730   0.000152   0.000229
    26  H   -0.018521   0.027855  -0.003144  -0.003772  -0.000197   0.000160
    27  H    0.003227  -0.005432   0.003414   0.000271   0.000004  -0.000069
               7          8          9         10         11         12
     1  C    0.637405   0.323780   0.213965  -0.108711   0.097795  -0.212599
     2  C   -0.230774  -0.011336   0.131123   0.004562  -0.053626   0.186159
     3  C   -0.007288   0.033723  -0.010402   0.382667   0.331749   0.038246
     4  C   -0.077906   0.003415   0.048913   0.046349  -0.026476   0.007624
     5  O   -0.001745  -0.000014  -0.003390   0.006293  -0.001142   0.016333
     6  O    0.027025  -0.001677  -0.014640   0.003241   0.004297   0.193130
     7  H    0.573626  -0.017358  -0.070911  -0.003119   0.002711  -0.023649
     8  H   -0.017358   0.551323  -0.029969  -0.009306  -0.001714   0.008019
     9  H   -0.070911  -0.029969   0.554130   0.009340  -0.004163  -0.007009
    10  H   -0.003119  -0.009306   0.009340   0.594140  -0.031780   0.000605
    11  H    0.002711  -0.001714  -0.004163  -0.031780   0.475018  -0.002120
    12  H   -0.023649   0.008019  -0.007009   0.000605  -0.002120   0.543363
    13  C    0.000065  -0.000365   0.000149   0.000149  -0.000026   0.000006
    14  C    0.000972   0.000491  -0.001764  -0.001421   0.000551  -0.000453
    15  C    0.001944  -0.001722  -0.000374  -0.002781  -0.001314   0.000001
    16  C   -0.008455   0.007755   0.028731   0.034386  -0.007619   0.003658
    17  C   -0.000287   0.003386  -0.012989  -0.011975   0.003058  -0.003304
    18  N    0.016453  -0.024542  -0.010558  -0.024169   0.000511  -0.004600
    19  C   -0.010413   0.009028   0.010095  -0.003829  -0.004009   0.005373
    20  C    0.007451  -0.004605  -0.017599  -0.002370   0.004837  -0.002578
    21  H    0.000002  -0.000000   0.000025  -0.000006  -0.000001  -0.000001
    22  H    0.000006  -0.000036  -0.000063   0.000010   0.000008   0.000002
    23  H   -0.000023   0.000041  -0.000024  -0.000106  -0.000001   0.000013
    24  H   -0.000033   0.000654   0.000005   0.000285  -0.000044   0.000009
    25  H   -0.001323  -0.001231   0.000172   0.002595   0.000507  -0.000138
    26  H   -0.001402   0.001931  -0.002256  -0.001385  -0.000426   0.002506
    27  H    0.000152  -0.000175  -0.000106   0.000876  -0.000006  -0.000232
              13         14         15         16         17         18
     1  C    0.000538   0.027406  -0.004750  -0.225086   0.132448   0.072638
     2  C    0.000072  -0.025691  -0.002392   0.307933  -0.230264  -0.049223
     3  C   -0.001025   0.003042  -0.018365  -0.080900   0.082260  -0.097136
     4  C    0.000046   0.000727   0.003378  -0.016710   0.028556  -0.017550
     5  O    0.000000  -0.000000   0.000003  -0.000017  -0.000331  -0.000118
     6  O    0.000002   0.000033   0.000319  -0.000258   0.000014   0.002505
     7  H    0.000065   0.000972   0.001944  -0.008455  -0.000287   0.016453
     8  H   -0.000365   0.000491  -0.001722   0.007755   0.003386  -0.024542
     9  H    0.000149  -0.001764  -0.000374   0.028731  -0.012989  -0.010558
    10  H    0.000149  -0.001421  -0.002781   0.034386  -0.011975  -0.024169
    11  H   -0.000026   0.000551  -0.001314  -0.007619   0.003058   0.000511
    12  H    0.000006  -0.000453   0.000001   0.003658  -0.003304  -0.004600
    13  C    5.939366  -0.950952   0.822173   0.274425  -0.370061   0.025461
    14  C   -0.950952  11.499912  -4.821274  -1.234850   1.589530  -0.024631
    15  C    0.822173  -4.821274  11.527047  -0.111698  -0.648963  -0.054138
    16  C    0.274425  -1.234850  -0.111698  13.653288  -4.677254   0.441954
    17  C   -0.370061   1.589530  -0.648963  -4.677254  10.375889  -0.237886
    18  N    0.025461  -0.024631  -0.054138   0.441954  -0.237886   6.913158
    19  C   -0.314221   0.007910   0.841002  -0.440015   0.755890  -0.145622
    20  C    0.223947  -0.083325  -1.944088  -1.682815  -0.879737   0.309412
    21  H    0.374375  -0.020433   0.019197  -0.009042  -0.003939   0.000569
    22  H    0.323526   0.083619  -0.113505   0.000789   0.012062  -0.001260
    23  H   -0.034565   0.379158  -0.012580   0.006936   0.001346  -0.002927
    24  H    0.024552   0.092501  -0.152879   0.388996  -0.044285   0.016213
    25  H    0.003603  -0.026011   0.024459  -0.079166   0.476281  -0.117125
    26  H    0.001300   0.002168   0.006624  -0.032566   0.027911  -0.102845
    27  H    0.012150   0.000538  -0.064760   0.024509   0.000208   0.013052
              19         20         21         22         23         24
     1  C   -0.247394   0.220053   0.000018   0.000325  -0.000525  -0.002412
     2  C    0.269498  -0.177792  -0.000036  -0.000130   0.000494   0.001450
     3  C    0.043570  -0.043991   0.000022  -0.000181  -0.000068   0.002172
     4  C   -0.021463   0.025268  -0.000001   0.000018  -0.000009  -0.000313
     5  O    0.000317  -0.000014  -0.000000   0.000000  -0.000000  -0.000004
     6  O   -0.002992  -0.000135   0.000000   0.000001  -0.000000  -0.000024
     7  H   -0.010413   0.007451   0.000002   0.000006  -0.000023  -0.000033
     8  H    0.009028  -0.004605  -0.000000  -0.000036   0.000041   0.000654
     9  H    0.010095  -0.017599   0.000025  -0.000063  -0.000024   0.000005
    10  H   -0.003829  -0.002370  -0.000006   0.000010  -0.000106   0.000285
    11  H   -0.004009   0.004837  -0.000001   0.000008  -0.000001  -0.000044
    12  H    0.005373  -0.002578  -0.000001   0.000002   0.000013   0.000009
    13  C   -0.314221   0.223947   0.374375   0.323526  -0.034565   0.024552
    14  C    0.007910  -0.083325  -0.020433   0.083619   0.379158   0.092501
    15  C    0.841002  -1.944088   0.019197  -0.113505  -0.012580  -0.152879
    16  C   -0.440015  -1.682815  -0.009042   0.000789   0.006936   0.388996
    17  C    0.755890  -0.879737  -0.003939   0.012062   0.001346  -0.044285
    18  N   -0.145622   0.309412   0.000569  -0.001260  -0.002927   0.016213
    19  C    9.522640  -4.222122  -0.001936  -0.004253   0.039934  -0.018438
    20  C   -4.222122  13.639441   0.013273   0.030588  -0.052328   0.001367
    21  H   -0.001936   0.013273   0.534725  -0.050057  -0.017218   0.000584
    22  H   -0.004253   0.030588  -0.050057   0.538438   0.012551   0.006581
    23  H    0.039934  -0.052328  -0.017218   0.012551   0.511585  -0.000963
    24  H   -0.018438   0.001367   0.000584   0.006581  -0.000963   0.590345
    25  H    0.017696  -0.008920  -0.000078   0.000596   0.000287  -0.014037
    26  H    0.474020  -0.083943  -0.000214   0.000354   0.000793   0.000134
    27  H   -0.039395   0.328141   0.000750   0.000027   0.000905  -0.001238
              25         26         27
     1  C    0.014775  -0.018521   0.003227
     2  C   -0.011661   0.027855  -0.005432
     3  C   -0.001434  -0.003144   0.003414
     4  C    0.001730  -0.003772   0.000271
     5  O    0.000152  -0.000197   0.000004
     6  O    0.000229   0.000160  -0.000069
     7  H   -0.001323  -0.001402   0.000152
     8  H   -0.001231   0.001931  -0.000175
     9  H    0.000172  -0.002256  -0.000106
    10  H    0.002595  -0.001385   0.000876
    11  H    0.000507  -0.000426  -0.000006
    12  H   -0.000138   0.002506  -0.000232
    13  C    0.003603   0.001300   0.012150
    14  C   -0.026011   0.002168   0.000538
    15  C    0.024459   0.006624  -0.064760
    16  C   -0.079166  -0.032566   0.024509
    17  C    0.476281   0.027911   0.000208
    18  N   -0.117125  -0.102845   0.013052
    19  C    0.017696   0.474020  -0.039395
    20  C   -0.008920  -0.083943   0.328141
    21  H   -0.000078  -0.000214   0.000750
    22  H    0.000596   0.000354   0.000027
    23  H    0.000287   0.000793   0.000905
    24  H   -0.014037   0.000134  -0.001238
    25  H    0.560881   0.001228   0.000532
    26  H    0.001228   0.580491  -0.011926
    27  H    0.000532  -0.011926   0.556201
 Mulliken charges:
               1
     1  C   -0.685837
     2  C    0.662736
     3  C   -0.278799
     4  C   -0.367286
     5  O   -0.326692
     6  O   -0.092670
     7  H    0.186875
     8  H    0.160507
     9  H    0.189568
    10  H    0.115460
    11  H    0.213425
    12  H    0.251636
    13  C   -0.354688
    14  C   -0.497751
    15  C    0.709439
    16  C   -0.566908
    17  C   -0.367564
    18  N    0.102406
    19  C   -0.520869
    20  C    0.402584
    21  H    0.159422
    22  H    0.159985
    23  H    0.167295
    24  H    0.108823
    25  H    0.155399
    26  H    0.135122
    27  H    0.178382
 Sum of Mulliken charges =  -0.00000
 Mulliken charges with hydrogens summed into heavy atoms:
               1
     1  C   -0.148887
     2  C    0.662736
     3  C    0.050086
     4  C   -0.367286
     5  O   -0.326692
     6  O    0.158966
    13  C   -0.035281
    14  C   -0.330456
    15  C    0.709439
    16  C   -0.458086
    17  C   -0.212165
    18  N    0.102406
    19  C   -0.385748
    20  C    0.580966
 DipInt: DoE/N= T F RetVal/Mat= T F Init=T NMatP=  1 IDeriv=0 Min/MaxMlt=  0  4
 Entering OneElI...
 OneElI was handed 25769367289 working-precision words.
 Multipole integrals L=0 to 4 MinM= 0 MaxM= 0.
 Requested accuracy = 0.1000D-12
 ShPair: Thresh= 1.00D-13 NBox=     0 BxSize= 0.00D+00 RnKept= 2.23D+01
         NSMCal=                11175 NSMKep=                9402
 PrmmSu-InSpLW:  IPartL=    0 NPrtUS=    1 NPrtUL=    1 DoSpLW=F IThBeg=    0 IThEnd=    0 NThAct=    1.
 PrsmSu:  NPrtUS=   1 ThrOK=F IAlg=1 NPAlg=1 LenDen=           0 ISkipM=0 DoSpLW=F IThBeg=    0 IThEnd=    0.
 Prism:   IPart=     0 DynPar=F LinDyn=F Incr=          94.
 PRISM was handed 25768742536 working-precision words and  9402 shell-pairs
 IPart=  0 NShTot=        9402 NBatch=         103 AvBLen=        91.3
 PrsmSu-ThDecC:  IPartSL=    0    0 NPrtUSL=    1    1 IThBeg=    0 IThEnd=    0 CPU=   -1 GPU=   -1 NThAct=    1.
 PrSmSu:  NxtVal=             95.
 Electronic moments (au):
       -102.00000000          3.30628867         -0.32673320         -0.87729256
      -4573.41105042       -347.48271330       -259.72826839          3.63511041
          6.86432250         -0.04330927      -2255.27219416        -20.90377269
         -7.65506527       -480.11572973      -1282.23940771       -283.41725784
       1134.53709649         94.03324211         51.50382756       -164.13768556
    -353606.37064688      -3271.17825187      -2278.23766404      10690.21568771
       4113.48861560       -720.66772464        -89.26989273         66.94844341
         44.87848353     -11406.90322357     -11438.54110918       -818.09000039
        172.07956576       -436.03554127        -89.81905336
 Electronic spatial extent (au):  <R**2>=           5180.6220
 DipInt: DoE/N= F T RetVal/Mat= T F Init=T NMatP=  1 IDeriv=0 Min/MaxMlt=  0  4
 Nuclear    moments (au):
        102.00000000         -0.00000000         -0.00000000          0.00000000
       4492.26732690        291.03972632        195.58469240          0.00000000
          0.00000000         -0.00000000       2668.89916204         27.63288840
          0.37452816        495.78695006       1240.92492329        222.62007236
      -1163.85103751        -94.20397606        -56.70570828        171.60537988
     334994.43706273       2093.52330893       1390.73598085     -10350.90913669
      -3557.38558678        686.89951365         94.29289317        -16.78317420
        -59.53711546       8602.12438417       8261.54391308        437.04473049
       -115.11818211        449.96502252         85.84340049
 Total      moments (au):
         -0.00000000          3.30628867         -0.32673320         -0.87729256
        -81.14372352        -56.44298699        -64.14357599          3.63511041
          6.86432250         -0.04330927        413.62696788          6.72911571
         -7.28053711         15.67122033        -41.31448442        -60.79718548
        -29.31394102         -0.17073395         -5.20188072          7.46769432
     -18611.93358415      -1177.65494294       -887.50168319        339.30655102
        556.10302883        -33.76821099          5.02300044         50.16526921
        -14.65863193      -2804.77883940      -3176.99719610       -381.04526991
         56.96138365         13.92948125         -3.97565287
 Traceless Quadrup. (au):
        -13.90029469         10.80044185          3.09985284          3.63511041
          6.86432250         -0.04330927
 Charge=             -0.0000 electrons
 Dipole moment (field-independent basis, Debye):
    X=              8.4037    Y=             -0.8305    Z=             -2.2299  Tot=              8.7341
 Quadrupole moment (field-independent basis, Debye-Ang):
   XX=           -109.1411   YY=            -75.9178   ZZ=            -86.2753
   XY=              4.8893   XZ=              9.2327   YZ=             -0.0583
 Traceless Quadrupole moment (field-independent basis, Debye-Ang):
   XX=            -18.6964   YY=             14.5270   ZZ=              4.1694
   XY=              4.8893   XZ=              9.2327   YZ=             -0.0583
 Octapole moment (field-independent basis, Debye-Ang**2):
  XXX=            294.4037  YYY=              4.7895  ZZZ=             -5.1820  XYY=             11.1542
  XXY=            -29.4061  XXZ=            -43.2731  XZZ=            -20.8645  YZZ=             -0.1215
  YYZ=             -3.7025  XYZ=              5.3152
 Hexadecapole moment (field-independent basis, Debye-Ang**3):
 XXXX=          -7010.1467 YYYY=           -443.5613 ZZZZ=           -334.2757 XXXY=            127.7991
 XXXZ=            209.4551 YYYX=            -12.7187 YYYZ=              1.8919 ZZZX=             18.8946
 ZZZY=             -5.5211 XXYY=          -1056.4142 XXZZ=          -1196.6095 YYZZ=           -143.5199
 XXYZ=             21.4544 YYXZ=              5.2465 ZZXY=             -1.4974
 N-N= 7.800325807931D+02 E-N=-3.033500696562D+03  KE= 6.296981199248D+02
 Entering OneElI...
 OneElI was handed 25769463047 working-precision words.
 Calculate electrostatic properties
    NBasis =   399  MinDer = 0  MaxDer = 0
    NGrid  =    27  NMatD  =   1
 Requested accuracy = 0.1000D-12
 ShPair: Thresh= 1.00D-13 NBox=     0 BxSize= 0.00D+00 RnKept= 2.23D+01
         NSMCal=                11175 NSMKep=                8717
 PrmmSu-InSpLW:  IPartL=    0 NPrtUS=   48 NPrtUL=    1 DoSpLW=F IThBeg=    0 IThEnd=   47 NThAct=   48.
 PrsmSu:  NPrtUS=  48 ThrOK=T IAlg=1 NPAlg=1 LenDen=           0 ISkipM=0 DoSpLW=F IThBeg=    0 IThEnd=   47.
 Prism:   IPart=     0 DynPar=F LinDyn=F Incr=          49.
 PRISM was handed   536681959 working-precision words and  8717 shell-pairs
 PRISM was handed   536681959 working-precision words and  8717 shell-pairs
 PRISM was handed   536681959 working-precision words and  8717 shell-pairs
 PRISM was handed   536681959 working-precision words and  8717 shell-pairs
 PRISM was handed   536681959 working-precision words and  8717 shell-pairs
 PRISM was handed   536681959 working-precision words and  8717 shell-pairs
 PRISM was handed   536681959 working-precision words and  8717 shell-pairs
 PRISM was handed   536681959 working-precision words and  8717 shell-pairs
 PRISM was handed   536681959 working-precision words and  8717 shell-pairs
 PRISM was handed   536681959 working-precision words and  8717 shell-pairs
 PRISM was handed   536681959 working-precision words and  8717 shell-pairs
 PRISM was handed   536681959 working-precision words and  8717 shell-pairs
 PRISM was handed   536681959 working-precision words and  8717 shell-pairs
 PRISM was handed   536681959 working-precision words and  8717 shell-pairs
 PRISM was handed   536681959 working-precision words and  8717 shell-pairs
 PRISM was handed   536681959 working-precision words and  8717 shell-pairs
 PRISM was handed   536681959 working-precision words and  8717 shell-pairs
 PRISM was handed   536681959 working-precision words and  8717 shell-pairs
 PRISM was handed   536681959 working-precision words and  8717 shell-pairs
 PRISM was handed   536681959 working-precision words and  8717 shell-pairs
 PRISM was handed   536681959 working-precision words and  8717 shell-pairs
 PRISM was handed   536681959 working-precision words and  8717 shell-pairs
 PRISM was handed   536681959 working-precision words and  8717 shell-pairs
 PRISM was handed   536681959 working-precision words and  8717 shell-pairs
 PRISM was handed   536681959 working-precision words and  8717 shell-pairs
 PRISM was handed   536681959 working-precision words and  8717 shell-pairs
 PRISM was handed   536681959 working-precision words and  8717 shell-pairs
 PRISM was handed   536681959 working-precision words and  8717 shell-pairs
 PRISM was handed   536681959 working-precision words and  8717 shell-pairs
 PRISM was handed   536681959 working-precision words and  8717 shell-pairs
 PRISM was handed   536681959 working-precision words and  8717 shell-pairs
 PRISM was handed   536681959 working-precision words and  8717 shell-pairs
 PRISM was handed   536681959 working-precision words and  8717 shell-pairs
 PRISM was handed   536681959 working-precision words and  8717 shell-pairs
 PRISM was handed   536681959 working-precision words and  8717 shell-pairs
 PRISM was handed   536681959 working-precision words and  8717 shell-pairs
 PRISM was handed   536681959 working-precision words and  8717 shell-pairs
 PRISM was handed   536681959 working-precision words and  8717 shell-pairs
 PRISM was handed   536681959 working-precision words and  8717 shell-pairs
 PRISM was handed   536681959 working-precision words and  8717 shell-pairs
 PRISM was handed   536681959 working-precision words and  8717 shell-pairs
 PRISM was handed   536681959 working-precision words and  8717 shell-pairs
 PRISM was handed   536681959 working-precision words and  8717 shell-pairs
 PRISM was handed   536681959 working-precision words and  8717 shell-pairs
 PRISM was handed   536681959 working-precision words and  8717 shell-pairs
 PRISM was handed   536681959 working-precision words and  8717 shell-pairs
 PRISM was handed   536681959 working-precision words and  8717 shell-pairs
 PRISM was handed   536681959 working-precision words and  8717 shell-pairs
 IPart= 34 NShTot=        4617 NBatch=         171 AvBLen=        27.0
 PrsmSu-ThDecC:  IPartSL=   34    0 NPrtUSL=   48    1 IThBeg=    0 IThEnd=   47 CPU=   -1 GPU=   -1 NThAct=   48.
 IPart= 29 NShTot=        4698 NBatch=         174 AvBLen=        27.0
 PrsmSu-ThDecC:  IPartSL=   29    0 NPrtUSL=   48    1 IThBeg=    0 IThEnd=   47 CPU=   -1 GPU=   -1 NThAct=   47.
 IPart= 41 NShTot=        4455 NBatch=         165 AvBLen=        27.0
 IPart= 28 NShTot=        4698 NBatch=         174 AvBLen=        27.0
 IPart= 33 NShTot=        4617 NBatch=         171 AvBLen=        27.0
 IPart= 25 NShTot=        4779 NBatch=         177 AvBLen=        27.0
 IPart= 21 NShTot=        4806 NBatch=         178 AvBLen=        27.0
 IPart= 31 NShTot=        4617 NBatch=         171 AvBLen=        27.0
 IPart= 20 NShTot=        4806 NBatch=         178 AvBLen=        27.0
 IPart= 23 NShTot=        4806 NBatch=         178 AvBLen=        27.0
 IPart= 16 NShTot=        4887 NBatch=         181 AvBLen=        27.0
 IPart= 18 NShTot=        4806 NBatch=         178 AvBLen=        27.0
 IPart= 30 NShTot=        4617 NBatch=         171 AvBLen=        27.0
 PrsmSu-ThDecC:  IPartSL=   41    0 NPrtUSL=   48    1 IThBeg=    0 IThEnd=   47 CPU=   -1 GPU=   -1 NThAct=   46.
 PrsmSu-ThDecC:  IPartSL=   18    0 NPrtUSL=   48    1 IThBeg=    0 IThEnd=   47 CPU=   -1 GPU=   -1 NThAct=   45.
 IPart=  8 NShTot=        5400 NBatch=         200 AvBLen=        27.0
 PrsmSu-ThDecC:  IPartSL=   23    0 NPrtUSL=   48    1 IThBeg=    0 IThEnd=   47 CPU=   -1 GPU=   -1 NThAct=   44.
 PrsmSu-ThDecC:  IPartSL=    8    0 NPrtUSL=   48    1 IThBeg=    0 IThEnd=   47 CPU=   -1 GPU=   -1 NThAct=   43.
 PrsmSu-ThDecC:  IPartSL=   28    0 NPrtUSL=   48    1 IThBeg=    0 IThEnd=   47 CPU=   -1 GPU=   -1 NThAct=   42.
 PrsmSu-ThDecC:  IPartSL=   30    0 NPrtUSL=   48    1 IThBeg=    0 IThEnd=   47 CPU=   -1 GPU=   -1 NThAct=   41.
 PrsmSu-ThDecC:  IPartSL=   33    0 NPrtUSL=   48    1 IThBeg=    0 IThEnd=   47 CPU=   -1 GPU=   -1 NThAct=   40.
 PrsmSu-ThDecC:  IPartSL=   20    0 NPrtUSL=   48    1 IThBeg=    0 IThEnd=   47 CPU=   -1 GPU=   -1 NThAct=   39.
 IPart= 27 NShTot=        4698 NBatch=         174 AvBLen=        27.0
 PrsmSu-ThDecC:  IPartSL=   31    0 NPrtUSL=   48    1 IThBeg=    0 IThEnd=   47 CPU=   -1 GPU=   -1 NThAct=   38.
 IPart= 13 NShTot=        5211 NBatch=         193 AvBLen=        27.0
 PrsmSu-ThDecC:  IPartSL=   21    0 NPrtUSL=   48    1 IThBeg=    0 IThEnd=   47 CPU=   -1 GPU=   -1 NThAct=   37.
 IPart=  7 NShTot=        5427 NBatch=         201 AvBLen=        27.0
 PrsmSu-ThDecC:  IPartSL=   16    0 NPrtUSL=   48    1 IThBeg=    0 IThEnd=   47 CPU=   -1 GPU=   -1 NThAct=   36.
 PrsmSu-ThDecC:  IPartSL=    7    0 NPrtUSL=   48    1 IThBeg=    0 IThEnd=   47 CPU=   -1 GPU=   -1 NThAct=   35.
 PrsmSu-ThDecC:  IPartSL=   13    0 NPrtUSL=   48    1 IThBeg=    0 IThEnd=   47 CPU=   -1 GPU=   -1 NThAct=   34.
 PrsmSu-ThDecC:  IPartSL=   27    0 NPrtUSL=   48    1 IThBeg=    0 IThEnd=   47 CPU=   -1 GPU=   -1 NThAct=   33.
 PrsmSu-ThDecC:  IPartSL=   25    0 NPrtUSL=   48    1 IThBeg=    0 IThEnd=   47 CPU=   -1 GPU=   -1 NThAct=   32.
 IPart= 17 NShTot=        4860 NBatch=         180 AvBLen=        27.0
 PrsmSu-ThDecC:  IPartSL=   17    0 NPrtUSL=   48    1 IThBeg=    0 IThEnd=   47 CPU=   -1 GPU=   -1 NThAct=   31.
 IPart= 11 NShTot=        5292 NBatch=         196 AvBLen=        27.0
 PrsmSu-ThDecC:  IPartSL=   11    0 NPrtUSL=   48    1 IThBeg=    0 IThEnd=   47 CPU=   -1 GPU=   -1 NThAct=   30.
 IPart= 10 NShTot=        5346 NBatch=         198 AvBLen=        27.0
 PrsmSu-ThDecC:  IPartSL=   10    0 NPrtUSL=   48    1 IThBeg=    0 IThEnd=   47 CPU=   -1 GPU=   -1 NThAct=   29.
 IPart= 15 NShTot=        4968 NBatch=         184 AvBLen=        27.0
 PrsmSu-ThDecC:  IPartSL=   15    0 NPrtUSL=   48    1 IThBeg=    0 IThEnd=   47 CPU=   -1 GPU=   -1 NThAct=   28.
 IPart=  0 NShTot=        5886 NBatch=         218 AvBLen=        27.0
 PrsmSu-ThDecC:  IPartSL=    0    0 NPrtUSL=   48    1 IThBeg=    0 IThEnd=   47 CPU=   -1 GPU=   -1 NThAct=   27.
 IPart=  5 NShTot=        5589 NBatch=         207 AvBLen=        27.0
 PrsmSu-ThDecC:  IPartSL=    5    0 NPrtUSL=   48    1 IThBeg=    0 IThEnd=   47 CPU=   -1 GPU=   -1 NThAct=   26.
 IPart=  3 NShTot=        5670 NBatch=         210 AvBLen=        27.0
 IPart=  4 NShTot=        5616 NBatch=         208 AvBLen=        27.0
 PrsmSu-ThDecC:  IPartSL=    3    0 NPrtUSL=   48    1 IThBeg=    0 IThEnd=   47 CPU=   -1 GPU=   -1 NThAct=   25.
 PrsmSu-ThDecC:  IPartSL=    4    0 NPrtUSL=   48    1 IThBeg=    0 IThEnd=   47 CPU=   -1 GPU=   -1 NThAct=   24.
 IPart= 42 NShTot=        4455 NBatch=         165 AvBLen=        27.0
 PrsmSu-ThDecC:  IPartSL=   42    0 NPrtUSL=   48    1 IThBeg=    0 IThEnd=   47 CPU=   -1 GPU=   -1 NThAct=   23.
 IPart= 24 NShTot=        4806 NBatch=         178 AvBLen=        27.0
 PrsmSu-ThDecC:  IPartSL=   24    0 NPrtUSL=   48    1 IThBeg=    0 IThEnd=   47 CPU=   -1 GPU=   -1 NThAct=   22.
 IPart=  9 NShTot=        5373 NBatch=         199 AvBLen=        27.0
 PrsmSu-ThDecC:  IPartSL=    9    0 NPrtUSL=   48    1 IThBeg=    0 IThEnd=   47 CPU=   -1 GPU=   -1 NThAct=   21.
 IPart= 14 NShTot=        4995 NBatch=         185 AvBLen=        27.0
 PrsmSu-ThDecC:  IPartSL=   14    0 NPrtUSL=   48    1 IThBeg=    0 IThEnd=   47 CPU=   -1 GPU=   -1 NThAct=   20.
 IPart= 46 NShTot=        4428 NBatch=         164 AvBLen=        27.0
 PrsmSu-ThDecC:  IPartSL=   46    0 NPrtUSL=   48    1 IThBeg=    0 IThEnd=   47 CPU=   -1 GPU=   -1 NThAct=   19.
 IPart= 45 NShTot=        4428 NBatch=         164 AvBLen=        27.0
 PrsmSu-ThDecC:  IPartSL=   45    0 NPrtUSL=   48    1 IThBeg=    0 IThEnd=   47 CPU=   -1 GPU=   -1 NThAct=   18.
 IPart= 32 NShTot=        4617 NBatch=         171 AvBLen=        27.0
 PrsmSu-ThDecC:  IPartSL=   32    0 NPrtUSL=   48    1 IThBeg=    0 IThEnd=   47 CPU=   -1 GPU=   -1 NThAct=   17.
 IPart= 39 NShTot=        4482 NBatch=         166 AvBLen=        27.0
 PrsmSu-ThDecC:  IPartSL=   39    0 NPrtUSL=   48    1 IThBeg=    0 IThEnd=   47 CPU=   -1 GPU=   -1 NThAct=   16.
 IPart= 43 NShTot=        4455 NBatch=         165 AvBLen=        27.0
 PrsmSu-ThDecC:  IPartSL=   43    0 NPrtUSL=   48    1 IThBeg=    0 IThEnd=   47 CPU=   -1 GPU=   -1 NThAct=   15.
 IPart=  2 NShTot=        5697 NBatch=         211 AvBLen=        27.0
 PrsmSu-ThDecC:  IPartSL=    2    0 NPrtUSL=   48    1 IThBeg=    0 IThEnd=   47 CPU=   -1 GPU=   -1 NThAct=   14.
 IPart= 35 NShTot=        4590 NBatch=         170 AvBLen=        27.0
 PrsmSu-ThDecC:  IPartSL=   35    0 NPrtUSL=   48    1 IThBeg=    0 IThEnd=   47 CPU=   -1 GPU=   -1 NThAct=   13.
 IPart=  1 NShTot=        5751 NBatch=         213 AvBLen=        27.0
 PrsmSu-ThDecC:  IPartSL=    1    0 NPrtUSL=   48    1 IThBeg=    0 IThEnd=   47 CPU=   -1 GPU=   -1 NThAct=   12.
 IPart= 19 NShTot=        4806 NBatch=         178 AvBLen=        27.0
 PrsmSu-ThDecC:  IPartSL=   19    0 NPrtUSL=   48    1 IThBeg=    0 IThEnd=   47 CPU=   -1 GPU=   -1 NThAct=   11.
 IPart=  6 NShTot=        5508 NBatch=         204 AvBLen=        27.0
 PrsmSu-ThDecC:  IPartSL=    6    0 NPrtUSL=   48    1 IThBeg=    0 IThEnd=   47 CPU=   -1 GPU=   -1 NThAct=   10.
 IPart= 12 NShTot=        5211 NBatch=         193 AvBLen=        27.0
 PrsmSu-ThDecC:  IPartSL=   12    0 NPrtUSL=   48    1 IThBeg=    0 IThEnd=   47 CPU=   -1 GPU=   -1 NThAct=    9.
 IPart= 44 NShTot=        4428 NBatch=         164 AvBLen=        27.0
 PrsmSu-ThDecC:  IPartSL=   44    0 NPrtUSL=   48    1 IThBeg=    0 IThEnd=   47 CPU=   -1 GPU=   -1 NThAct=    8.
 IPart= 22 NShTot=        4806 NBatch=         178 AvBLen=        27.0
 PrsmSu-ThDecC:  IPartSL=   22    0 NPrtUSL=   48    1 IThBeg=    0 IThEnd=   47 CPU=   -1 GPU=   -1 NThAct=    7.
 IPart= 47 NShTot=        4428 NBatch=         164 AvBLen=        27.0
 PrsmSu-ThDecC:  IPartSL=   47    0 NPrtUSL=   48    1 IThBeg=    0 IThEnd=   47 CPU=   -1 GPU=   -1 NThAct=    6.
 IPart= 26 NShTot=        4779 NBatch=         177 AvBLen=        27.0
 PrsmSu-ThDecC:  IPartSL=   26    0 NPrtUSL=   48    1 IThBeg=    0 IThEnd=   47 CPU=   -1 GPU=   -1 NThAct=    5.
 IPart= 40 NShTot=        4482 NBatch=         166 AvBLen=        27.0
 PrsmSu-ThDecC:  IPartSL=   40    0 NPrtUSL=   48    1 IThBeg=    0 IThEnd=   47 CPU=   -1 GPU=   -1 NThAct=    4.
 IPart= 38 NShTot=        4509 NBatch=         167 AvBLen=        27.0
 PrsmSu-ThDecC:  IPartSL=   38    0 NPrtUSL=   48    1 IThBeg=    0 IThEnd=   47 CPU=   -1 GPU=   -1 NThAct=    3.
 IPart= 37 NShTot=        4563 NBatch=         169 AvBLen=        27.0
 PrsmSu-ThDecC:  IPartSL=   37    0 NPrtUSL=   48    1 IThBeg=    0 IThEnd=   47 CPU=   -1 GPU=   -1 NThAct=    2.
 IPart= 36 NShTot=        4590 NBatch=         170 AvBLen=        27.0
 PrsmSu-ThDecC:  IPartSL=   36    0 NPrtUSL=   48    1 IThBeg=    0 IThEnd=   47 CPU=   -1 GPU=   -1 NThAct=    1.
 PrSmSu:  NxtVal=           2353.
 --------------------------------------------------------
       Center         ----      EFG at Nuclei      ----
                      3XX-RR        3YY-RR        3ZZ-RR
 --------------------------------------------------------
     1   Atom        0.050498      0.006053     -0.056552
     2   Atom       -0.038167     -0.169716      0.207883
     3   Atom        0.002492     -0.235397      0.232905
     4   Atom        0.224834     -0.244408      0.019574
     5   Atom        0.031461     -0.070231      0.038769
     6   Atom       -0.226431      1.030173     -0.803742
     7   Atom       -0.046125      0.132495     -0.086370
     8   Atom        0.051830     -0.188407      0.136576
     9   Atom       -0.014367     -0.064476      0.078843
    10   Atom       -0.168960      0.013845      0.155116
    11   Atom        0.078301      0.101108     -0.179409
    12   Atom       -0.358434      0.279420      0.079015
    13   Atom        0.190191      0.145774     -0.335964
    14   Atom        0.135571      0.153695     -0.289266
    15   Atom        0.181252      0.205405     -0.386657
    16   Atom        0.153322      0.125412     -0.278734
    17   Atom        0.175783      0.127771     -0.303554
    18   Atom        1.044421     -0.338899     -0.705522
    19   Atom        0.231326      0.106918     -0.338244
    20   Atom        0.202069      0.112452     -0.314521
    21   Atom       -0.302259      0.132688      0.169571
    22   Atom        0.146552     -0.300410      0.153858
    23   Atom        0.111567     -0.261476      0.149909
    24   Atom       -0.009729     -0.157910      0.167639
    25   Atom        0.062786     -0.233937      0.171150
    26   Atom        0.001158     -0.171380      0.170222
    27   Atom        0.110233     -0.279134      0.168900
 --------------------------------------------------------
                        XY            XZ            YZ
 --------------------------------------------------------
     1   Atom        0.010853      0.041340     -0.038216
     2   Atom       -0.085011      0.074542     -0.037989
     3   Atom       -0.282032      0.031294      0.021107
     4   Atom       -0.243746     -0.152393     -0.057551
     5   Atom       -0.830252      1.006861     -0.792448
     6   Atom       -0.196959      0.485773      0.644661
     7   Atom       -0.059834     -0.217409     -0.074198
     8   Atom        0.196112     -0.030525      0.058953
     9   Atom       -0.188828      0.121375      0.125051
    10   Atom        0.231691     -0.017192      0.006723
    11   Atom        0.073872      0.167070     -0.139256
    12   Atom        0.005242      0.301482      0.028612
    13   Atom       -0.048544     -0.022432      0.108523
    14   Atom       -0.073944     -0.017298      0.091385
    15   Atom       -0.025061      0.014438      0.014788
    16   Atom        0.004964      0.007346      0.023332
    17   Atom        0.104149      0.002273      0.016366
    18   Atom        0.292632      0.096815      0.025353
    19   Atom       -0.055819      0.011033     -0.003951
    20   Atom       -0.008939      0.016664     -0.009432
    21   Atom       -0.100735     -0.024270     -0.008342
    22   Atom       -0.067533     -0.012470     -0.088148
    23   Atom       -0.126315     -0.029040     -0.099414
    24   Atom        0.220683      0.035116     -0.048856
    25   Atom       -0.184673     -0.012942     -0.026030
    26   Atom        0.219090     -0.014341      0.018279
    27   Atom       -0.127228      0.017794      0.060197
 --------------------------------------------------------


 ---------------------------------------------------------------------------------
              Nuclear Quadrupole Coupling Constant in Principal Axis System
 ---------------------------------------------------------------------------------

       Atom             a.u.   MegaHertz   Gauss  10(-4) cm-1        Axes

              Baa    -0.7111     3.415     1.219     1.139 -0.0503 -0.0284  0.9983
    18 N(14)  Bbb    -0.3982     1.912     0.682     0.638 -0.1999  0.9796  0.0178
              Bcc     1.1093    -5.328    -1.901    -1.777  0.9785  0.1987  0.0550
 

 ---------------------------------------------------------------------------------

 No NMR shielding tensors so no spin-rotation constants.
 Leave Link  601 at Thu Apr 21 10:51:02 2022, MaxMem= 25769803776 cpu:              22.0 elap:               0.5
 Calling FoFJK, ICntrl=      2127 FMM=F ISym2X=0 I1Cent= 0 IOpClX= 0 NMat=1 NMatS=1 NMatT=0.
 ***** Axes restored to original set *****
 -------------------------------------------------------------------
 Center     Atomic                   Forces (Hartrees/Bohr)
 Number     Number              X              Y              Z
 -------------------------------------------------------------------
      1        6           0.016024819    0.006894934   -0.004291325
      2        6          -0.027688481   -0.022679580   -0.014446107
      3        6           0.009560321    0.022821706    0.006086295
      4        6          -0.035788404   -0.075400060   -0.060192370
      5        8           0.044024285    0.043526977    0.043356313
      6        8          -0.012277930    0.009202678    0.005397867
      7        1          -0.008928456   -0.003179326   -0.009035415
      8        1           0.002516576    0.000688597    0.011161242
      9        1           0.004717129   -0.006117861    0.006579435
     10        1           0.000707660   -0.009377353    0.002345756
     11        1           0.000981330    0.000126203   -0.002986593
     12        1           0.005095858    0.033977394    0.013980982
     13        6           0.008816066   -0.007342655    0.033181913
     14        6           0.035904268    0.000415229   -0.013511478
     15        6          -0.035716511    0.008033584   -0.022924069
     16        6           0.008605222   -0.001211151   -0.013324159
     17        6          -0.044136430    0.018691775    0.015946296
     18        7           0.006812303   -0.019735665    0.013208807
     19        6           0.034792359    0.007110944   -0.005982724
     20        6          -0.006713121    0.004081601    0.005360209
     21        1          -0.000835228    0.000510000    0.006402999
     22        1          -0.009356886    0.002804430   -0.011196624
     23        1          -0.002234165    0.002247905    0.000323517
     24        1           0.002182497   -0.007227483    0.001657595
     25        1           0.008080165   -0.000919539    0.001028033
     26        1          -0.004555288    0.001412789   -0.016286052
     27        1          -0.000589960   -0.009356073    0.008159654
 -------------------------------------------------------------------
 Cartesian Forces:  Max     0.075400060 RMS     0.019603608

 GradGradGradGradGradGradGradGradGradGradGradGradGradGradGradGradGradGrad
 Berny optimization.
 FormGI is forming the generalized inverse of G from B-inverse, IUseBI=4.
 Internal  Forces:  Max     0.075036905 RMS     0.011807229
 Search for a local minimum.
 Step number   1 out of a maximum of  146
 All quantities printed in internal units (Hartrees-Bohrs-Radians)
 Mixed Optimization -- RFO/linear search
 Second derivative matrix not updated -- first step.
 ITU=  0
     Eigenvalues ---    0.00622   0.00622   0.01253   0.01340   0.01341
     Eigenvalues ---    0.01606   0.01872   0.01922   0.01999   0.02054
     Eigenvalues ---    0.02081   0.02099   0.02124   0.02203   0.02245
     Eigenvalues ---    0.02270   0.02273   0.02420   0.02621   0.02765
     Eigenvalues ---    0.02912   0.02918   0.03014   0.04403   0.06836
     Eigenvalues ---    0.08088   0.08885   0.11443   0.11950   0.13428
     Eigenvalues ---    0.15757   0.15881   0.15903   0.15951   0.15983
     Eigenvalues ---    0.15987   0.16000   0.16000   0.16000   0.16592
     Eigenvalues ---    0.18644   0.19595   0.21916   0.22003   0.23299
     Eigenvalues ---    0.24886   0.24942   0.24972   0.25000   0.31264
     Eigenvalues ---    0.31649   0.33511   0.34756   0.34795   0.35013
     Eigenvalues ---    0.35904   0.35929   0.35965   0.35965   0.35990
     Eigenvalues ---    0.35996   0.36038   0.36065   0.40069   0.41914
     Eigenvalues ---    0.42275   0.45798   0.46987   0.47540   0.52381
     Eigenvalues ---    0.53097   0.57711   0.58720   0.62213   0.77233
 RFO step:  Lambda=-5.37044699D-02 EMin= 6.22110369D-03
 Linear search not attempted -- first point.
 Maximum step size (   0.300) exceeded in Quadratic search.
    -- Step size scaled by   0.736
 Iteration  1 RMS(Cart)=  0.05992309 RMS(Int)=  0.00362307
 Iteration  2 RMS(Cart)=  0.00382711 RMS(Int)=  0.00031468
 Iteration  3 RMS(Cart)=  0.00004200 RMS(Int)=  0.00031309
 Iteration  4 RMS(Cart)=  0.00000001 RMS(Int)=  0.00031309
 Variable       Old X    -DE/DX   Delta X   Delta X   Delta X     New X
                                 (Linear)    (Quad)   (Total)
    R1        2.81442   0.00958   0.00000   0.01632   0.01637   2.83079
    R2        2.06008   0.00413   0.00000   0.00758   0.00758   2.06766
    R3        2.06073   0.00041   0.00000   0.00076   0.00076   2.06149
    R4        2.05906   0.00511   0.00000   0.00925   0.00929   2.06835
    R5        2.54085  -0.00795   0.00000  -0.01077  -0.01066   2.53020
    R6        2.85512  -0.00021   0.00000  -0.00042  -0.00042   2.85470
    R7        2.03952   0.00326   0.00000   0.00564   0.00571   2.04524
    R8        2.04136  -0.00030   0.00000  -0.00053  -0.00053   2.04083
    R9        2.39443  -0.07504   0.00000  -0.06689  -0.06689   2.32754
   R10        2.49231   0.04399   0.00000   0.04793   0.04793   2.54024
   R11        1.78668   0.02408   0.00000   0.02767   0.02767   1.81435
   R12        5.11606   0.00089   0.00000   0.01881   0.01872   5.13478
   R13        5.26984  -0.00070   0.00000  -0.00525  -0.00528   5.26456
   R14        2.52799   0.00112   0.00000   0.00130   0.00130   2.52930
   R15        2.04231   0.00536   0.00000   0.00956   0.00956   2.05187
   R16        2.04098   0.00117   0.00000   0.00208   0.00208   2.04306
   R17        2.71460   0.02655   0.00000   0.04303   0.04303   2.75762
   R18        2.04088   0.00122   0.00000   0.00218   0.00218   2.04305
   R19        2.65061  -0.00065   0.00000   0.00073   0.00075   2.65135
   R20        2.64494   0.00007   0.00000   0.00257   0.00263   2.64757
   R21        2.63628  -0.00954   0.00000  -0.01432  -0.01435   2.62194
   R22        2.04193   0.00219   0.00000   0.00391   0.00391   2.04583
   R23        2.61650  -0.03135   0.00000  -0.04541  -0.04548   2.57102
   R24        2.03981   0.00269   0.00000   0.00478   0.00478   2.04459
   R25        2.56231  -0.02381   0.00000  -0.03109  -0.03109   2.53121
   R26        2.62592   0.00529   0.00000   0.00812   0.00815   2.63407
   R27        2.04136   0.00353   0.00000   0.00629   0.00629   2.04766
   R28        2.04022   0.00501   0.00000   0.00891   0.00891   2.04912
    A1        2.04003  -0.01263   0.00000  -0.04676  -0.04655   1.99347
    A2        1.88324   0.00727   0.00000   0.02480   0.02480   1.90804
    A3        1.98568  -0.00113   0.00000  -0.00696  -0.00699   1.97869
    A4        1.78980   0.00515   0.00000   0.02933   0.02988   1.81968
    A5        1.81410   0.00973   0.00000   0.03677   0.03666   1.85076
    A6        1.94172  -0.00857   0.00000  -0.03689  -0.03676   1.90497
    A7        2.20987  -0.01394   0.00000  -0.03710  -0.03712   2.17276
    A8        2.06322   0.00722   0.00000   0.01962   0.01957   2.08279
[...]
 **** Fit       0.018180
 **** Fit       0.019023
 **** Fit       0.019536
 **** Fit       0.019614
 **** Fit       0.019215
 **** Fit       0.018389
 **** Fit       0.017260
 **** Fit       0.015986
 **** Fit       0.014703
 **** Fit       0.017551
 **** Fit       0.017858
 **** Fit       0.017836
 **** Fit       0.017473
 **** Fit       0.016808
 **** Fit       0.015923
 **** Fit       0.015701
 **** Fit       0.016228
 **** Fit       0.016502
 **** Fit       0.016502
 **** Fit       0.016239
 **** Fit       0.015791
 **** Fit       0.016603
 **** Fit       0.017174
 **** Fit       0.017444
 **** Fit       0.017391
 **** Fit       0.017039
 **** Fit       0.016444
 **** Fit       0.014417
 **** Fit       0.015601
 **** Fit       0.016698
 **** Fit       0.017598
 **** Fit       0.018198
 **** Fit       0.018431
 **** Fit       0.018286
 **** Fit       0.017805
 **** Fit       0.017069
 **** Fit       0.016173
 **** Fit       0.012574
 **** Fit       0.013824
 **** Fit       0.015175
 **** Fit       0.016546
 **** Fit       0.017810
 **** Fit       0.018813
 **** Fit       0.019420
 **** Fit       0.019561
 **** Fit       0.019251
 **** Fit       0.018573
 **** Fit       0.017645
 **** Fit       0.016584
 **** Fit       0.013102
 **** Fit       0.014543
 **** Fit       0.016142
 **** Fit       0.017794
 **** Fit       0.019316
 **** Fit       0.020471
 **** Fit       0.021063
 **** Fit       0.021018
 **** Fit       0.020414
 **** Fit       0.019420
 **** Fit       0.018213
 **** Fit       0.016936
 **** Fit       0.015682
 **** Fit       0.012320
 **** Fit       0.013744
 **** Fit       0.015452
 **** Fit       0.017422
 **** Fit       0.019526
 **** Fit       0.021490
 **** Fit       0.022919
 **** Fit       0.023472
 **** Fit       0.023078
 **** Fit       0.021957
 **** Fit       0.020447
 **** Fit       0.018826
 **** Fit       0.017256
 **** Fit       0.015815
 **** Fit       0.011553
 **** Fit       0.012864
 **** Fit       0.014514
 **** Fit       0.016579
 **** Fit       0.019080
 **** Fit       0.021892
 **** Fit       0.024609
 **** Fit       0.026539
 **** Fit       0.027039
 **** Fit       0.026029
 **** Fit       0.024036
 **** Fit       0.021723
 **** Fit       0.019509
 **** Fit       0.017559
 **** Fit       0.015894
 **** Fit       0.014485
 **** Fit       0.012003
 **** Fit       0.013469
 **** Fit       0.015376
 **** Fit       0.017861
 **** Fit       0.021032
 **** Fit       0.024807
 **** Fit       0.028639
 **** Fit       0.031366
 **** Fit       0.031803
 **** Fit       0.029850
 **** Fit       0.026580
 **** Fit       0.023170
 **** Fit       0.020213
 **** Fit       0.017821
 **** Fit       0.015915
 **** Fit       0.014386
 **** Fit       0.012472
 **** Fit       0.014085
 **** Fit       0.016229
 **** Fit       0.019109
 **** Fit       0.022927
 **** Fit       0.027680
 **** Fit       0.029000
 **** Fit       0.024458
 **** Fit       0.020774
 **** Fit       0.017973
 **** Fit       0.015856
 **** Fit       0.014229
 **** Fit       0.012917
 **** Fit       0.014634
 **** Fit       0.016931
 **** Fit       0.020045
 **** Fit       0.024221
 **** Fit       0.029488
 **** Fit       0.030271
 **** Fit       0.025070
 **** Fit       0.020961
 **** Fit       0.017921
 **** Fit       0.015686
 **** Fit       0.014011
 **** Fit       0.013289
 **** Fit       0.015042
 **** Fit       0.017356
 **** Fit       0.020445
 **** Fit       0.024505
 **** Fit       0.029502
 **** Fit       0.029695
 **** Fit       0.024659
 **** Fit       0.020619
 **** Fit       0.017604
 **** Fit       0.015386
 **** Fit       0.013729
 **** Fit       0.013553
 **** Fit       0.015261
 **** Fit       0.017453
 **** Fit       0.020271
 **** Fit       0.023807
 **** Fit       0.027924
 **** Fit       0.031953
 **** Fit       0.034577
 **** Fit       0.034524
 **** Fit       0.031760
 **** Fit       0.027564
 **** Fit       0.023333
 **** Fit       0.019783
 **** Fit       0.017035
 **** Fit       0.014961
 **** Fit       0.013389
 **** Fit       0.013688
 **** Fit       0.015286
 **** Fit       0.017256
 **** Fit       0.019662
 **** Fit       0.022496
 **** Fit       0.025563
 **** Fit       0.028340
 **** Fit       0.029994
 **** Fit       0.029822
 **** Fit       0.027833
 **** Fit       0.024774
 **** Fit       0.021528
 **** Fit       0.018643
 **** Fit       0.016292
 **** Fit       0.014447
 **** Fit       0.013007
 **** Fit       0.015142
 **** Fit       0.016844
 **** Fit       0.018808
 **** Fit       0.020968
 **** Fit       0.023131
 **** Fit       0.024927
 **** Fit       0.025880
 **** Fit       0.025637
 **** Fit       0.024229
 **** Fit       0.022065
 **** Fit       0.019667
 **** Fit       0.017413
 **** Fit       0.015477
 **** Fit       0.013887
 **** Fit       0.016301
 **** Fit       0.017866
 **** Fit       0.019475
 **** Fit       0.020968
 **** Fit       0.022104
 **** Fit       0.022617
 **** Fit       0.022341
 **** Fit       0.021312
 **** Fit       0.019758
 **** Fit       0.017985
 **** Fit       0.016240
 **** Fit       0.014669
 **** Fit       0.013320
 **** Fit       0.016923
 **** Fit       0.018118
 **** Fit       0.019150
 **** Fit       0.019865
 **** Fit       0.020120
 **** Fit       0.019837
 **** Fit       0.019049
 **** Fit       0.017893
 **** Fit       0.016552
 **** Fit       0.015188
 **** Fit       0.013911
 **** Fit       0.016912
 **** Fit       0.017635
 **** Fit       0.018089
 **** Fit       0.018195
 **** Fit       0.017919
 **** Fit       0.017291
 **** Fit       0.016398
 **** Fit       0.015354
 **** Fit       0.016669
 **** Fit       0.016410
 **** Fit       0.015894
 **** Fit       0.014685
 **** Fit       0.015539
 **** Fit       0.016215
 **** Fit       0.016647
 **** Fit       0.016796
 **** Fit       0.016659
 **** Fit       0.013348
 **** Fit       0.014464
 **** Fit       0.015555
 **** Fit       0.016525
 **** Fit       0.017270
 **** Fit       0.017703
 **** Fit       0.017783
 **** Fit       0.017523
 **** Fit       0.016982
 **** Fit       0.016242
 **** Fit       0.012816
 **** Fit       0.014040
 **** Fit       0.015339
 **** Fit       0.016623
 **** Fit       0.017759
 **** Fit       0.018596
 **** Fit       0.019014
 **** Fit       0.018971
 **** Fit       0.018515
 **** Fit       0.017753
 **** Fit       0.016804
 **** Fit       0.015773
 **** Fit       0.013431
 **** Fit       0.014854
 **** Fit       0.016402
 **** Fit       0.017962
 **** Fit       0.019344
 **** Fit       0.020319
 **** Fit       0.020706
 **** Fit       0.020464
 **** Fit       0.019705
 **** Fit       0.018619
 **** Fit       0.017385
 **** Fit       0.016134
 **** Fit       0.014939
 **** Fit       0.012692
 **** Fit       0.014115
 **** Fit       0.015781
 **** Fit       0.017652
 **** Fit       0.019589
 **** Fit       0.021327
 **** Fit       0.022510
 **** Fit       0.022851
 **** Fit       0.022312
 **** Fit       0.021114
 **** Fit       0.019582
 **** Fit       0.017982
 **** Fit       0.016464
 **** Fit       0.015092
 **** Fit       0.013225
 **** Fit       0.014829
 **** Fit       0.016759
 **** Fit       0.018996
 **** Fit       0.021383
 **** Fit       0.023565
 **** Fit       0.025018
 **** Fit       0.025301
 **** Fit       0.024376
 **** Fit       0.022626
 **** Fit       0.020559
 **** Fit       0.018539
 **** Fit       0.016734
 **** Fit       0.015183
 **** Fit       0.013731
 **** Fit       0.015493
 **** Fit       0.017656
 **** Fit       0.020218
 **** Fit       0.023017
 **** Fit       0.025614
 **** Fit       0.027319
 **** Fit       0.027533
 **** Fit       0.026217
 **** Fit       0.023925
 **** Fit       0.021351
 **** Fit       0.018948
 **** Fit       0.016890
 **** Fit       0.015187
 **** Fit       0.013788
 **** Fit       0.012663
 **** Fit       0.014154
 **** Fit       0.016011
 **** Fit       0.018303
 **** Fit       0.021037
 **** Fit       0.024040
 **** Fit       0.026830
 **** Fit       0.028630
 **** Fit       0.028763
 **** Fit       0.027197
 **** Fit       0.024579
 **** Fit       0.021702
 **** Fit       0.019073
 **** Fit       0.016867
 **** Fit       0.015079
 **** Fit       0.013637
 **** Fit       0.014443
 **** Fit       0.016302
 **** Fit       0.018574
 **** Fit       0.021249
 **** Fit       0.024143
 **** Fit       0.026782
 **** Fit       0.028435
 **** Fit       0.028480
 **** Fit       0.026900
 **** Fit       0.024305
 **** Fit       0.021449
 **** Fit       0.018827
 **** Fit       0.016625
 **** Fit       0.014843
 **** Fit       0.013412
 **** Fit       0.014567
 **** Fit       0.016336
 **** Fit       0.018443
 **** Fit       0.020849
 **** Fit       0.023366
 **** Fit       0.025577
 **** Fit       0.026898
 **** Fit       0.026860
 **** Fit       0.025462
 **** Fit       0.023180
 **** Fit       0.020625
 **** Fit       0.018227
 **** Fit       0.016173
 **** Fit       0.014485
 **** Fit       0.014528
 **** Fit       0.016135
 **** Fit       0.017981
 **** Fit       0.020003
 **** Fit       0.022020
 **** Fit       0.023707
 **** Fit       0.024649
 **** Fit       0.024544
 **** Fit       0.023402
 **** Fit       0.021553
 **** Fit       0.019432
 **** Fit       0.017377
 **** Fit       0.015561
 **** Fit       0.014031
 **** Fit       0.015757
 **** Fit       0.017309
 **** Fit       0.018929
 **** Fit       0.020461
 **** Fit       0.021669
 **** Fit       0.022286
 **** Fit       0.022135
 **** Fit       0.021233
 **** Fit       0.019792
 **** Fit       0.018103
 **** Fit       0.016411
 **** Fit       0.014864
 **** Fit       0.015263
 **** Fit       0.016535
 **** Fit       0.017798
 **** Fit       0.018928
 **** Fit       0.019764
 **** Fit       0.020142
 **** Fit       0.019963
 **** Fit       0.019249
 **** Fit       0.018134
 **** Fit       0.016807
 **** Fit       0.015438
 **** Fit       0.014145
 **** Fit       0.016708
 **** Fit       0.017533
 **** Fit       0.018103
 **** Fit       0.018318
 **** Fit       0.018127
 **** Fit       0.017551
 **** Fit       0.016678
 **** Fit       0.015629
 **** Fit       0.014523
 **** Fit       0.016302
 **** Fit       0.016688
 **** Fit       0.016798
 **** Fit       0.016606
 **** Fit       0.016132
 **** Fit       0.015434
 **** Fit       0.014538
 **** Fit       0.015290
 **** Fit       0.015853
 **** Fit       0.016170
 **** Fit       0.016218
 **** Fit       0.016006
 **** Fit       0.013380
 **** Fit       0.014426
 **** Fit       0.015424
 **** Fit       0.016281
 **** Fit       0.016898
 **** Fit       0.017202
 **** Fit       0.017169
 **** Fit       0.016826
 **** Fit       0.016242
 **** Fit       0.015497
 **** Fit       0.014074
 **** Fit       0.015284
 **** Fit       0.016449
 **** Fit       0.017444
 **** Fit       0.018132
 **** Fit       0.018412
 **** Fit       0.018260
 **** Fit       0.017735
 **** Fit       0.016946
 **** Fit       0.016010
 **** Fit       0.015020
 **** Fit       0.013490
 **** Fit       0.014815
 **** Fit       0.016219
 **** Fit       0.017589
 **** Fit       0.018759
 **** Fit       0.019537
 **** Fit       0.019782
 **** Fit       0.019473
 **** Fit       0.018712
 **** Fit       0.017669
 **** Fit       0.016503
 **** Fit       0.015331
 **** Fit       0.014064
 **** Fit       0.015552
 **** Fit       0.017156
 **** Fit       0.018746
 **** Fit       0.020108
 **** Fit       0.020984
 **** Fit       0.021186
 **** Fit       0.020693
 **** Fit       0.019664
 **** Fit       0.018340
 **** Fit       0.016932
 **** Fit       0.015576
 **** Fit       0.014335
 **** Fit       0.013155
 **** Fit       0.014573
 **** Fit       0.016195
 **** Fit       0.017966
 **** Fit       0.019739
 **** Fit       0.021260
 **** Fit       0.022213
 **** Fit       0.022363
 **** Fit       0.021694
 **** Fit       0.020419
 **** Fit       0.018844
 **** Fit       0.017225
 **** Fit       0.015712
 **** Fit       0.014367
 **** Fit       0.013480
 **** Fit       0.014954
 **** Fit       0.016645
 **** Fit       0.018497
 **** Fit       0.020353
 **** Fit       0.021937
 **** Fit       0.022904
 **** Fit       0.022998
 **** Fit       0.022208
 **** Fit       0.020778
 **** Fit       0.019049
 **** Fit       0.017304
 **** Fit       0.015700
 **** Fit       0.014296
 **** Fit       0.013686
 **** Fit       0.015156
 **** Fit       0.016829
 **** Fit       0.018645
 **** Fit       0.020445
 **** Fit       0.021958
 **** Fit       0.022853
 **** Fit       0.022890
 **** Fit       0.022065
 **** Fit       0.020615
 **** Fit       0.018874
 **** Fit       0.017121
 **** Fit       0.015513
 **** Fit       0.014109
 **** Fit       0.015160
 **** Fit       0.016730
 **** Fit       0.018400
 **** Fit       0.020018
 **** Fit       0.021342
 **** Fit       0.022094
 **** Fit       0.022079
 **** Fit       0.021297
 **** Fit       0.019952
 **** Fit       0.018331
 **** Fit       0.016683
 **** Fit       0.015157
 **** Fit       0.013813
 **** Fit       0.014980
 **** Fit       0.016387
 **** Fit       0.017839
 **** Fit       0.019201
 **** Fit       0.020279
 **** Fit       0.020858
 **** Fit       0.020798
 **** Fit       0.020106
 **** Fit       0.018938
 **** Fit       0.017518
 **** Fit       0.016050
 **** Fit       0.014666
 **** Fit       0.015870
 **** Fit       0.017080
 **** Fit       0.018175
 **** Fit       0.019004
 **** Fit       0.019418
 **** Fit       0.019325
 **** Fit       0.018734
 **** Fit       0.017759
 **** Fit       0.016564
 **** Fit       0.015304
 **** Fit       0.016234
 **** Fit       0.017087
 **** Fit       0.017702
 **** Fit       0.017980
 **** Fit       0.017864
 **** Fit       0.017367
 **** Fit       0.016567
 **** Fit       0.015580
 **** Fit       0.014521
 **** Fit       0.016030
 **** Fit       0.016477
 **** Fit       0.016653
 **** Fit       0.016524
 **** Fit       0.016104
 **** Fit       0.015448
 **** Fit       0.014260
 **** Fit       0.014913
 **** Fit       0.015376
 **** Fit       0.015603
 **** Fit       0.015580
 **** Fit       0.015323
 **** Fit       0.014164
 **** Fit       0.015045
 **** Fit       0.015776
 **** Fit       0.016275
 **** Fit       0.016484
 **** Fit       0.016388
 **** Fit       0.016018
 **** Fit       0.015440
 **** Fit       0.013805
 **** Fit       0.014867
 **** Fit       0.015861
 **** Fit       0.016681
 **** Fit       0.017220
 **** Fit       0.017403
 **** Fit       0.017216
 **** Fit       0.016712
 **** Fit       0.015983
 **** Fit       0.015126
 **** Fit       0.014360
 **** Fit       0.015534
 **** Fit       0.016639
 **** Fit       0.017547
 **** Fit       0.018123
 **** Fit       0.018273
 **** Fit       0.017989
 **** Fit       0.017342
 **** Fit       0.016456
 **** Fit       0.015454
 **** Fit       0.014826
 **** Fit       0.016087
 **** Fit       0.017277
 **** Fit       0.018250
 **** Fit       0.018847
 **** Fit       0.018961
 **** Fit       0.018584
 **** Fit       0.017810
 **** Fit       0.016789
 **** Fit       0.015665
 **** Fit       0.014545
 **** Fit       0.013883
 **** Fit       0.015145
 **** Fit       0.016443
 **** Fit       0.017666
 **** Fit       0.018656
 **** Fit       0.019245
 **** Fit       0.019321
 **** Fit       0.018876
 **** Fit       0.018019
 **** Fit       0.016912
 **** Fit       0.015714
 **** Fit       0.014536
 **** Fit       0.015272
 **** Fit       0.016545
 **** Fit       0.017733
 **** Fit       0.018681
 **** Fit       0.019227
 **** Fit       0.019263
 **** Fit       0.018787
 **** Fit       0.017907
 **** Fit       0.016784
 **** Fit       0.015574
 **** Fit       0.014391
 **** Fit       0.015196
 **** Fit       0.016384
 **** Fit       0.017474
 **** Fit       0.018326
 **** Fit       0.018798
 **** Fit       0.018797
 **** Fit       0.018326
 **** Fit       0.017481
 **** Fit       0.016408
 **** Fit       0.015250
 **** Fit       0.014940
 **** Fit       0.015999
 **** Fit       0.016949
 **** Fit       0.017672
 **** Fit       0.018053
 **** Fit       0.018021
 **** Fit       0.017581
 **** Fit       0.016813
 **** Fit       0.015837
 **** Fit       0.014776
 **** Fit       0.015455
 **** Fit       0.016250
 **** Fit       0.016836
 **** Fit       0.017125
 **** Fit       0.017069
 **** Fit       0.016672
 **** Fit       0.015999
 **** Fit       0.015142
 **** Fit       0.015926
 **** Fit       0.016134
 **** Fit       0.016060
 **** Fit       0.015709
 **** Fit       0.015130
 **** Fit       0.014696
 **** Fit       0.014856
 **** Fit       0.014373
 **** Fit       0.014968
 **** Fit       0.015358
 **** Fit       0.015498
 **** Fit       0.015382
 **** Fit       0.015036
 **** Fit       0.014917
 **** Fit       0.015554
 **** Fit       0.015955
 **** Fit       0.016072
 **** Fit       0.015898
 **** Fit       0.015470
 **** Fit       0.014856
 **** Fit       0.014511
 **** Fit       0.015348
 **** Fit       0.016010
 **** Fit       0.016414
 **** Fit       0.016505
 **** Fit       0.016277
 **** Fit       0.015778
 **** Fit       0.015085
 **** Fit       0.014758
 **** Fit       0.015605
 **** Fit       0.016269
 **** Fit       0.016661
 **** Fit       0.016724
 **** Fit       0.016455
 **** Fit       0.015906
 **** Fit       0.015162
 **** Fit       0.014828
 **** Fit       0.015651
 **** Fit       0.016287
 **** Fit       0.016650
 **** Fit       0.016685
 **** Fit       0.016392
 **** Fit       0.015823
 **** Fit       0.015065
 **** Fit       0.015482
 **** Fit       0.016063
 **** Fit       0.016381
 **** Fit       0.016390
 **** Fit       0.016091
 **** Fit       0.015533
 **** Fit       0.014795
 **** Fit       0.015634
 **** Fit       0.015899
 **** Fit       0.015885
 **** Fit       0.015595
 **** Fit       0.015071
 -----------------------------------------------------------------
 Leave Link  602 at Thu Apr 21 11:33:41 2022, MaxMem=   104857600 cpu:               2.8 elap:               2.9
 (Enter /opt/ohpc/pub/libs/gaussian/g16-A.03/haswell/g16/l9999.exe)

 Test job not archived.
 1\1\GINC-CASCADEB059\SP\RB3LYP\6-311++G(d,p)\C11H13N1O2\MNG228\21-Apr-
 2022\0\\#P B3LYP/6-311++G(d,p) Geom=Allcheck SCF=Tight EmpiricalDisper
 sion=GD3BJ Pop=CHELPG SP IOp(6/33=2)\\MAA1-VP1 geo opt\\0,1\C,0,13.972
 8089915,3.7999184349,12.2103668239\C,0,12.5204727286,3.8276232108,12.6
 07034107\C,0,11.7448519638,2.7455466042,12.6650268152\C,0,11.915033115
 2,5.1797846411,12.907095657\O,0,10.9778429051,5.6258829491,12.29271977
 85\O,0,12.5039592139,5.8751682822,13.8904554849\H,0,14.1303214346,4.40
 97301759,11.3149080883\H,0,14.2947522291,2.7798420255,11.9925018524\H,
 0,14.6149870906,4.2077368372,12.9943229967\H,0,12.1387619748,1.7591242
 405,12.4429332903\H,0,10.6940680366,2.8200746599,12.9181751667\H,0,13.
 1302428179,5.3177072738,14.4297127856\C,0,17.2947426442,3.0570287505,1
 9.4801242184\C,0,16.3800250163,2.5208035961,18.6690198967\C,0,15.62993
 10152,3.2191647439,17.6170157802\C,0,15.7770581422,4.5847486638,17.332
 9795917\C,0,15.0240046521,5.1550426409,16.3193787465\N,0,14.1471502307
 ,4.4644611875,15.5764418127\C,0,13.9962267802,3.1623675989,15.84095803
 72\C,0,14.7082895954,2.508361988,16.8379458869\H,0,17.7946530754,2.454
 3227096,20.2279983365\H,0,17.5786757614,4.1020143812,19.4333034241\H,0
 ,16.1460391828,1.4647727025,18.772789414\H,0,16.4662559374,5.203738281
 7,17.8921635709\H,0,15.1191036621,6.2103160819,16.0858261869\H,0,13.27
 85534155,2.6319404957,15.2242473516\H,0,14.5461883872,1.4507768426,17.
 0095548991\\Version=ES64L-G16RevA.03\State=1-A\HF=-632.4032529\RMSD=3.
 134e-09\Dipole=2.4015362,-1.7379823,2.0249173\Quadrupole=-4.4441362,2.
 3338117,2.1103246,9.6416959,-3.2624001,5.2974388\PG=C01 [X(C11H13N1O2)
 ]\\@


 IT IS IMPOSSIBLE TO MEDITATE ON TIME AND THE MYSTERY 
 OF NATURE WITHOUT AN OVERWHELMING EMOTION AT THE
 LIMITATIONS OF HUMAN INTELLIGENCE.

                                         -- ALFRED NORTH WHITEHEAD
 Job cpu time:       0 days  0 hours  7 minutes 50.1 seconds.
 Elapsed time:       0 days  0 hours  7 minutes 52.4 seconds.
 File lengths (MBytes):  RWF=    320 Int=      0 D2E=      0 Chk=     32 Scr=     32
 Normal termination of Gaussian 16 at Thu Apr 21 11:33:41 2022.
