 Entering Gaussian System, Link 0=g16
 Initial command:
 /opt/ohpc/pub/libs/gaussian/g16-A.03/haswell/g16/l1.exe "g16_scratch/Gau-271039.inp" -scrdir="g16_scratch/"
 Entering Link 1 = /opt/ohpc/pub/libs/gaussian/g16-A.03/haswell/g16/l1.exe PID=    271040.
  
 Copyright (c) 1988,1990,1992,1993,1995,1998,2003,2009,2016,
            Gaussian, Inc.  All Rights Reserved.
  
 This is part of the Gaussian(R) 16 program.  It is based on
 the Gaussian(R) 09 system (copyright 2009, Gaussian, Inc.),
 the Gaussian(R) 03 system (copyright 2003, Gaussian, Inc.),
 the Gaussian(R) 98 system (copyright 1998, Gaussian, Inc.),
 the Gaussian(R) 94 system (copyright 1995, Gaussian, Inc.),
 the Gaussian 92(TM) system (copyright 1992, Gaussian, Inc.),
 the Gaussian 90(TM) system (copyright 1990, Gaussian, Inc.),
 the Gaussian 88(TM) system (copyright 1988, Gaussian, Inc.),
 the Gaussian 86(TM) system (copyright 1986, Carnegie Mellon
 University), and the Gaussian 82(TM) system (copyright 1983,
 Carnegie Mellon University). Gaussian is a federally registered
 trademark of Gaussian, Inc.
  
 This software contains proprietary and confidential information,
 including trade secrets, belonging to Gaussian, Inc.
  
 This software is provided under written license and may be
 used, copied, transmitted, or stored only in accord with that
 written license.
  
 The following legend is applicable only to US Government
 contracts under FAR:
  
                    RESTRICTED RIGHTS LEGEND
  
 Use, reproduction and disclosure by the US Government is
 subject to restrictions as set forth in subparagraphs (a)
 and (c) of the Commercial Computer Software - Restricted
 Rights clause in FAR 52.227-19.
  
 Gaussian, Inc.
 340 Quinnipiac St., Bldg. 40, Wallingford CT 06492
  
  
 ---------------------------------------------------------------
 Warning -- This program may not be used in any manner that
 competes with the business of Gaussian, Inc. or will provide
 assistance to any competitor of Gaussian, Inc.  The licensee
 of this program is prohibited from giving any competitor of
 Gaussian, Inc. access to this program.  By using this program,
 the user acknowledges that Gaussian, Inc. is engaged in the
 business of creating and licensing software in the field of
 computational chemistry and represents and warrants to the
 licensee that it is not a competitor of Gaussian, Inc. and that
 it will not use this program in any manner prohibited above.
 ---------------------------------------------------------------
  

 Cite this work as:
 Gaussian 16, Revision A.03,
 M. J. Frisch, G. W. Trucks, H. B. Schlegel, G. E. Scuseria, 
 M. A. Robb, J. R. Cheeseman, G. Scalmani, V. Barone, 
 G. A. Petersson, H. Nakatsuji, X. Li, M. Caricato, A. V. Marenich, 
 J. Bloino, B. G. Janesko, R. Gomperts, B. Mennucci, H. P. Hratchian, 
 J. V. Ortiz, A. F. Izmaylov, J. L. Sonnenberg, D. Williams-Young, 
 F. Ding, F. Lipparini, F. Egidi, J. Goings, B. Peng, A. Petrone, 
 T. Henderson, D. Ranasinghe, V. G. Zakrzewski, J. Gao, N. Rega, 
 G. Zheng, W. Liang, M. Hada, M. Ehara, K. Toyota, R. Fukuda, 
 J. Hasegawa, M. Ishida, T. Nakajima, Y. Honda, O. Kitao, H. Nakai, 
 T. Vreven, K. Throssell, J. A. Montgomery, Jr., J. E. Peralta, 
 F. Ogliaro, M. J. Bearpark, J. J. Heyd, E. N. Brothers, K. N. Kudin, 
 V. N. Staroverov, T. A. Keith, R. Kobayashi, J. Normand, 
 K. Raghavachari, A. P. Rendell, J. C. Burant, S. S. Iyengar, 
 J. Tomasi, M. Cossi, J. M. Millam, M. Klene, C. Adamo, R. Cammi, 
 J. W. Ochterski, R. L. Martin, K. Morokuma, O. Farkas, 
 J. B. Foresman, and D. J. Fox, Gaussian, Inc., Wallingford CT, 2016.
 
 ******************************************
 Gaussian 16:  ES64L-G16RevA.03 25-Dec-2016
                21-Apr-2022 
 ******************************************
 %Mem=192GB
 %NProcShared=48
 Will use up to   48 processors via shared memory.
 %Chk=MAA1-VP1-5.chk
 ---------------------------------------------------------------------
 #n B3LYP/6-311++G(d,p) Opt freq EmpiricalDispersion=GD3BJ IOp(6/33=2)
 ---------------------------------------------------------------------
 1/18=20,19=15,26=3,38=1/1,3;
 2/9=110,12=2,17=6,18=5,40=1/2;
 3/5=4,6=6,7=1111,11=2,25=1,30=1,71=1,74=-5,124=41/1,2,3;
 4//1;
 5/5=2,38=5/2;
 6/7=2,8=2,9=2,10=2,28=1,33=2/1;
 7//1,2,3,16;
 1/18=20,19=15,26=3/3(2);
 2/9=110/2;
 99//99;
 2/9=110/2;
 3/5=4,6=6,7=1111,11=2,25=1,30=1,71=1,74=-5,124=41/1,2,3;
 4/5=5,16=3,69=1/1;
 5/5=2,38=5/2;
 7//1,2,3,16;
 1/18=20,19=15,26=3/3(-5);
 2/9=110/2;
 6/7=2,8=2,9=2,10=2,19=2,28=1,33=2/1;
 99/9=1/99;
 ----------------
 MAA1-VP1 geo opt
 ----------------
 Symbolic Z-matrix:
 Charge =  0 Multiplicity = 1
 C                     26.031    13.128    13.039 
 C                     27.36     12.643    12.564 
 C                     28.411    12.978    13.214 
 C                     27.406    11.86     11.346 
 O                     28.371    12.082    10.553 
 O                     26.658    10.723    11.133 
 H                     25.229    12.629    12.494 
 H                     25.921    14.189    12.814 
 H                     25.808    12.958    14.092 
 H                     28.301    13.684    14.023 
 H                     29.401    12.695    12.886 
 H                     26.103    10.431    11.84 
 C                     21.549    6.282     10.453 
 C                     21.351    7.31      11.332 
 C                     22.497    7.947     11.949 
 C                     23.621    7.279     12.429 
 C                     24.77     7.973     12.825 
 N                     24.822    9.32      12.923 
 C                     23.671    9.967     12.635 
 C                     22.533    9.312     12.101 
 H                     20.741    5.826     9.901 
 H                     22.557    5.911     10.338 
 H                     20.377    7.701     11.589 
 H                     23.722    6.207     12.346 
 H                     25.668    7.442     13.104 
 H                     23.679    11.039    12.758 
 H                     21.683    9.969     11.991 
 
 Add virtual bond connecting atoms N18        and H12        Dist= 3.80D+00.

 GradGradGradGradGradGradGradGradGradGradGradGradGradGradGradGradGradGrad
 Berny optimization.
 Initialization pass.
                           ----------------------------
                           !    Initial Parameters    !
                           ! (Angstroms and Degrees)  !
 --------------------------                            --------------------------
 ! Name  Definition              Value          Derivative Info.                !
 --------------------------------------------------------------------------------
 ! R1    R(1,2)                  1.4923         estimate D2E/DX2                !
 ! R2    R(1,7)                  1.0905         estimate D2E/DX2                !
 ! R3    R(1,8)                  1.0902         estimate D2E/DX2                !
 ! R4    R(1,9)                  1.0897         estimate D2E/DX2                !
 ! R5    R(2,3)                  1.2804         estimate D2E/DX2                !
 ! R6    R(2,4)                  1.4487         estimate D2E/DX2                !
 ! R7    R(3,10)                 1.0794         estimate D2E/DX2                !
 ! R8    R(3,11)                 1.0806         estimate D2E/DX2                !
 ! R9    R(4,5)                  1.2686         estimate D2E/DX2                !
 ! R10   R(4,6)                  1.3775         estimate D2E/DX2                !
 ! R11   R(6,12)                 0.9451         estimate D2E/DX2                !
 ! R12   R(12,18)                2.012          estimate D2E/DX2                !
 ! R13   R(13,14)                1.367          estimate D2E/DX2                !
 ! R14   R(13,21)                1.0796         estimate D2E/DX2                !
 ! R15   R(13,22)                1.0802         estimate D2E/DX2                !
 ! R16   R(14,15)                1.4491         estimate D2E/DX2                !
 ! R17   R(14,23)                1.0806         estimate D2E/DX2                !
 ! R18   R(15,16)                1.3928         estimate D2E/DX2                !
 ! R19   R(15,20)                1.3739         estimate D2E/DX2                !
 ! R20   R(16,17)                1.3995         estimate D2E/DX2                !
 ! R21   R(16,24)                1.0799         estimate D2E/DX2                !
 ! R22   R(17,18)                1.3516         estimate D2E/DX2                !
 ! R23   R(17,25)                1.0799         estimate D2E/DX2                !
 ! R24   R(18,19)                1.3514         estimate D2E/DX2                !
 ! R25   R(19,20)                1.4175         estimate D2E/DX2                !
 ! R26   R(19,26)                1.0791         estimate D2E/DX2                !
 ! R27   R(20,27)                1.0799         estimate D2E/DX2                !
 ! A1    A(2,1,7)              110.3133         estimate D2E/DX2                !
 ! A2    A(2,1,8)              109.9052         estimate D2E/DX2                !
 ! A3    A(2,1,9)              116.0475         estimate D2E/DX2                !
 ! A4    A(7,1,8)              105.5446         estimate D2E/DX2                !
 ! A5    A(7,1,9)              105.1321         estimate D2E/DX2                !
 ! A6    A(8,1,9)              109.3068         estimate D2E/DX2                !
 ! A7    A(1,2,3)              118.9729         estimate D2E/DX2                !
 ! A8    A(1,2,4)              118.134          estimate D2E/DX2                !
 ! A9    A(3,2,4)              122.8319         estimate D2E/DX2                !
 ! A10   A(2,3,10)             117.904          estimate D2E/DX2                !
 ! A11   A(2,3,11)             121.9652         estimate D2E/DX2                !
 ! A12   A(10,3,11)            119.4825         estimate D2E/DX2                !
 ! A13   A(2,4,5)              117.0729         estimate D2E/DX2                !
 ! A14   A(2,4,6)              123.9772         estimate D2E/DX2                !
 ! A15   A(5,4,6)              117.4405         estimate D2E/DX2                !
 ! A16   A(4,6,12)             117.2729         estimate D2E/DX2                !
 ! A17   A(6,12,18)            161.2962         estimate D2E/DX2                !
 ! A18   A(14,13,21)           122.5489         estimate D2E/DX2                !
 ! A19   A(14,13,22)           117.509          estimate D2E/DX2                !
 ! A20   A(21,13,22)           119.9263         estimate D2E/DX2                !
 ! A21   A(13,14,15)           119.3294         estimate D2E/DX2                !
 ! A22   A(13,14,23)           123.7533         estimate D2E/DX2                !
 ! A23   A(15,14,23)           116.9061         estimate D2E/DX2                !
 ! A24   A(14,15,16)           125.038          estimate D2E/DX2                !
 ! A25   A(14,15,20)           120.3031         estimate D2E/DX2                !
 ! A26   A(16,15,20)           114.6589         estimate D2E/DX2                !
 ! A27   A(15,16,17)           121.4812         estimate D2E/DX2                !
 ! A28   A(15,16,24)           121.672          estimate D2E/DX2                !
 ! A29   A(17,16,24)           115.9255         estimate D2E/DX2                !
 ! A30   A(16,17,18)           123.1146         estimate D2E/DX2                !
 ! A31   A(16,17,25)           120.7953         estimate D2E/DX2                !
 ! A32   A(18,17,25)           116.0606         estimate D2E/DX2                !
 ! A33   A(12,18,17)           122.3974         estimate D2E/DX2                !
 ! A34   A(12,18,19)            99.3917         estimate D2E/DX2                !
 ! A35   A(17,18,19)           115.3989         estimate D2E/DX2                !
 ! A36   A(18,19,20)           122.8763         estimate D2E/DX2                !
 ! A37   A(18,19,26)           116.4242         estimate D2E/DX2                !
 ! A38   A(20,19,26)           120.5281         estimate D2E/DX2                !
 ! A39   A(15,20,19)           121.4537         estimate D2E/DX2                !
 ! A40   A(15,20,27)           124.9272         estimate D2E/DX2                !
 ! A41   A(19,20,27)           112.9019         estimate D2E/DX2                !
 ! D1    D(7,1,2,3)           -170.4055         estimate D2E/DX2                !
 ! D2    D(7,1,2,4)             12.3597         estimate D2E/DX2                !
 ! D3    D(8,1,2,3)             73.621          estimate D2E/DX2                !
 ! D4    D(8,1,2,4)           -103.6139         estimate D2E/DX2                !
 ! D5    D(9,1,2,3)            -51.0154         estimate D2E/DX2                !
 ! D6    D(9,1,2,4)            131.7498         estimate D2E/DX2                !
 ! D7    D(1,2,3,10)            -6.2144         estimate D2E/DX2                !
 ! D8    D(1,2,3,11)          -176.9314         estimate D2E/DX2                !
 ! D9    D(4,2,3,10)           170.8835         estimate D2E/DX2                !
 ! D10   D(4,2,3,11)             0.1665         estimate D2E/DX2                !
 ! D11   D(1,2,4,5)            140.3861         estimate D2E/DX2                !
 ! D12   D(1,2,4,6)            -54.0202         estimate D2E/DX2                !
 ! D13   D(3,2,4,5)            -36.7349         estimate D2E/DX2                !
 ! D14   D(3,2,4,6)            128.8588         estimate D2E/DX2                !
 ! D15   D(2,4,6,12)            -1.8101         estimate D2E/DX2                !
 ! D16   D(5,4,6,12)           163.7349         estimate D2E/DX2                !
 ! D17   D(4,6,12,18)         -175.6734         estimate D2E/DX2                !
 ! D18   D(6,12,18,17)          31.3599         estimate D2E/DX2                !
 ! D19   D(6,12,18,19)         -96.9447         estimate D2E/DX2                !
 ! D20   D(21,13,14,15)       -174.7134         estimate D2E/DX2                !
 ! D21   D(21,13,14,23)          4.0297         estimate D2E/DX2                !
 ! D22   D(22,13,14,15)          6.7373         estimate D2E/DX2                !
 ! D23   D(22,13,14,23)       -174.5195         estimate D2E/DX2                !
 ! D24   D(13,14,15,16)        -41.1893         estimate D2E/DX2                !
 ! D25   D(13,14,15,20)        138.915          estimate D2E/DX2                !
 ! D26   D(23,14,15,16)        139.9826         estimate D2E/DX2                !
 ! D27   D(23,14,15,20)        -39.9132         estimate D2E/DX2                !
 ! D28   D(14,15,16,17)        170.1401         estimate D2E/DX2                !
 ! D29   D(14,15,16,24)          1.574          estimate D2E/DX2                !
 ! D30   D(20,15,16,17)         -9.959          estimate D2E/DX2                !
 ! D31   D(20,15,16,24)       -178.525          estimate D2E/DX2                !
 ! D32   D(14,15,20,19)       -176.5602         estimate D2E/DX2                !
 ! D33   D(14,15,20,27)         13.8446         estimate D2E/DX2                !
 ! D34   D(16,15,20,19)          3.5337         estimate D2E/DX2                !
 ! D35   D(16,15,20,27)       -166.0615         estimate D2E/DX2                !
 ! D36   D(15,16,17,18)          8.0621         estimate D2E/DX2                !
 ! D37   D(15,16,17,25)       -173.9916         estimate D2E/DX2                !
 ! D38   D(24,16,17,18)        177.2497         estimate D2E/DX2                !
 ! D39   D(24,16,17,25)         -4.804          estimate D2E/DX2                !
 ! D40   D(16,17,18,12)       -119.8046         estimate D2E/DX2                !
 ! D41   D(16,17,18,19)          1.2087         estimate D2E/DX2                !
 ! D42   D(25,17,18,12)         62.1592         estimate D2E/DX2                !
 ! D43   D(25,17,18,19)       -176.8275         estimate D2E/DX2                !
 ! D44   D(12,18,19,20)        124.9738         estimate D2E/DX2                !
 ! D45   D(12,18,19,26)        -50.284          estimate D2E/DX2                !
 ! D46   D(17,18,19,20)         -7.8471         estimate D2E/DX2                !
 ! D47   D(17,18,19,26)        176.8951         estimate D2E/DX2                !
 ! D48   D(18,19,20,15)          5.6099         estimate D2E/DX2                !
 ! D49   D(18,19,20,27)        176.36           estimate D2E/DX2                !
 ! D50   D(26,19,20,15)       -179.3207         estimate D2E/DX2                !
 ! D51   D(26,19,20,27)         -8.5707         estimate D2E/DX2                !
 --------------------------------------------------------------------------------
 Trust Radius=3.00D-01 FncErr=1.00D-07 GrdErr=1.00D-06 EigMax=2.50D+02 EigMin=1.00D-04
 Number of steps in this run=    129 maximum allowed number of steps=    162.
 GradGradGradGradGradGradGradGradGradGradGradGradGradGradGradGradGradGrad

                          Input orientation:                          
 ---------------------------------------------------------------------
 Center     Atomic      Atomic             Coordinates (Angstroms)
 Number     Number       Type             X           Y           Z
 ---------------------------------------------------------------------
      1          6           0       26.031000   13.128000   13.039000
      2          6           0       27.360000   12.643000   12.564000
      3          6           0       28.411000   12.978000   13.214000
      4          6           0       27.406000   11.860000   11.346000
      5          8           0       28.371000   12.082000   10.553000
      6          8           0       26.658000   10.723000   11.133000
      7          1           0       25.229000   12.629000   12.494000
      8          1           0       25.921000   14.189000   12.814000
      9          1           0       25.808000   12.958000   14.092000
     10          1           0       28.301000   13.684000   14.023000
     11          1           0       29.401000   12.695000   12.886000
     12          1           0       26.103000   10.431000   11.840000
     13          6           0       21.549000    6.282000   10.453000
     14          6           0       21.351000    7.310000   11.332000
     15          6           0       22.497000    7.947000   11.949000
     16          6           0       23.621000    7.279000   12.429000
     17          6           0       24.770000    7.973000   12.825000
     18          7           0       24.822000    9.320000   12.923000
     19          6           0       23.671000    9.967000   12.635000
     20          6           0       22.533000    9.312000   12.101000
     21          1           0       20.741000    5.826000    9.901000
     22          1           0       22.557000    5.911000   10.338000
     23          1           0       20.377000    7.701000   11.589000
     24          1           0       23.722000    6.207000   12.346000
     25          1           0       25.668000    7.442000   13.104000
     26          1           0       23.679000   11.039000   12.758000
     27          1           0       21.683000    9.969000   11.991000
 ---------------------------------------------------------------------
                    Distance matrix (angstroms):
                    1          2          3          4          5
     1  C    0.000000
     2  C    1.492344   0.000000
     3  C    2.391135   1.280362   0.000000
     4  C    2.522835   1.448699   2.397785   0.000000
     5  O    3.570702   2.319690   2.808084   1.268605   0.000000
     6  O    3.132090   2.495389   3.533921   1.377549   2.262222
     7  H    1.090518   2.132195   3.281055   2.578487   3.733477
     8  H    1.090159   2.126814   2.797610   3.128017   3.943865
     9  H    1.089696   2.200617   2.747161   3.361506   4.456553
    10  H    2.535802   2.024313   1.079360   3.360704   3.822591
    11  H    3.401147   2.066898   1.080635   2.654967   2.622891
    12  H    2.952388   2.645216   3.701614   1.995967   3.086421
    13  C    8.581575   8.870533   9.977303   8.137320   8.954869
    14  C    7.659332   8.128148   9.247256   7.574016   8.524038
    15  C    6.365534   6.788182   7.866803   6.306620   7.317849
    16  C    6.355391   6.539942   7.485915   6.040255   7.010755
    17  C    5.311303   5.346505   6.201470   4.923891   5.917184
    18  N    3.996999   4.196743   5.132891   3.951656   5.083399
    19  C    3.965443   4.557931   5.645260   4.381232   5.558592
    20  C    5.260960   5.883014   7.016353   5.550537   6.644656
    21  H    9.547269   9.867838  10.997999   9.106009   9.888354
    22  H    8.452761   8.564094   9.616818   7.740766   8.481159
    23  H    7.970103   8.610243   9.748462   8.170873   9.174448
    24  H    7.328845   7.396260   8.281702   6.821163   7.703485
    25  H    5.697946   5.495895   6.179275   5.062601   5.945032
    26  H    3.158288   4.019977   5.134149   4.069191   5.288170
    27  H    5.475645   6.301344   7.470997   6.061735   7.159746
                    6          7          8          9         10
     6  O    0.000000
     7  H    2.743574   0.000000
     8  H    3.922000   1.736336   0.000000
     9  H    3.804393   1.731209   1.778037   0.000000
    10  H    4.451861   3.589993   2.716819   2.597477   0.000000
    11  H    3.806027   4.190895   3.787825   3.799112   1.865714
    12  H    0.945060   2.454139   3.886433   3.397684   4.492071
    13  C    6.803438   7.615280   9.338595   8.714951  10.635977
    14  C    6.312877   6.684376   8.390582   7.705995   9.806725
    15  C    5.068131   5.448116   7.171790   6.376934   8.420277
    16  C    4.771176   5.586805   7.292896   6.308691   8.091184
    17  C    3.740309   4.690264   6.321675   5.247186   6.820461
    18  N    2.922910   3.361424   4.992679   3.946366   5.688404
    19  C    3.427785   3.087635   4.787465   3.954200   6.097502
    20  C    4.465822   4.292476   5.980973   5.289898   7.488544
    21  H    7.778774   8.552579  10.259519   9.700742  11.657300
    22  H    6.372250   7.544498   9.272128   8.621005  10.343708
    23  H    6.985083   6.974677   8.621526   7.962212  10.223034
    24  H    5.521388   6.598109   8.292584   7.278455   8.926651
    25  H    3.953467   5.241163   6.757967   5.605533   6.836652
    26  H    3.408067   2.236134   3.866807   3.161449   5.473494
    27  H    5.104440   4.461247   6.037083   5.510349   7.856728
                   11         12         13         14         15
    11  H    0.000000
    12  H    4.134805   0.000000
    13  C   10.425927   6.314815   0.000000
    14  C    9.808957   5.707908   1.366978   0.000000
    15  C    8.431292   4.380111   2.430832   1.449060   0.000000
    16  C    7.934123   4.054917   3.031793   2.521363   1.392839
    17  C    6.614164   2.964604   4.342891   3.789219   2.436100
    18  N    5.688518   2.012007   5.103222   4.315000   2.870441
    19  C    6.351211   2.600374   4.779459   3.760300   2.435010
    20  C    7.696125   3.750358   3.586790   2.448773   1.373909
    21  H   11.449410   7.329174   1.079585   2.149911   3.431688
    22  H    9.967713   5.938057   1.080245   2.097540   2.596963
    23  H   10.394942   6.348463   2.162785   1.080558   2.164374
    24  H    8.639258   4.875179   2.882881   2.804719   2.164679
    25  H    6.448009   3.274300   5.033842   4.668393   3.412373
    26  H    5.958188   2.662361   5.699033   4.621526   3.407649
    27  H    8.234053   4.446644   3.997170   2.759490   2.180102
                   16         17         18         19         20
    16  C    0.000000
    17  C    1.399519   0.000000
    18  N    2.419115   1.351561   0.000000
    19  C    2.696346   2.284718   1.351427   0.000000
    20  C    2.329038   2.705784   2.432133   1.417471   0.000000
    21  H    4.098340   5.421460   6.164015   5.762598   4.494826
    22  H    2.715843   3.915914   4.840840   4.792530   3.830868
    23  H    3.377458   4.571666   4.915154   4.132712   2.739672
    24  H    1.079942   2.108673   3.351671   3.771435   3.333882
    25  H    2.161574   1.079910   2.067695   3.253244   3.785648
    26  H    3.774812   3.255016   2.070902   1.079063   2.174280
    27  H    3.344217   3.769501   3.338135   2.089709   1.079930
                   21         22         23         24         25
    21  H    0.000000
    22  H    1.869773   0.000000
    23  H    2.549013   3.085693   0.000000
    24  H    3.874216   2.340279   3.740870   0.000000
    25  H    6.094751   4.435430   5.509718   2.426253   0.000000
    26  H    6.630962   5.780283   4.838596   4.849723   4.124833
    27  H    4.734967   4.468070   2.647841   4.293738   4.848167
                   26         27
    26  H    0.000000
    27  H    2.391068   0.000000
 Stoichiometry    C11H13NO2
 Framework group  C1[X(C11H13NO2)]
 Deg. of freedom    75
 Full point group                 C1      NOp   1
 Largest Abelian subgroup         C1      NOp   1
 Largest concise Abelian subgroup C1      NOp   1
                         Standard orientation:                         
 ---------------------------------------------------------------------
 Center     Atomic      Atomic             Coordinates (Angstroms)
 Number     Number       Type             X           Y           Z
 ---------------------------------------------------------------------
      1          6           0        3.004543    1.659936   -0.452136
      2          6           0        3.586344    0.362008   -0.000492
      3          6           0        4.625831    0.374940    0.746920
      4          6           0        2.979905   -0.862609   -0.481401
      5          8           0        3.762454   -1.813348   -0.786480
      6          8           0        1.639885   -1.157702   -0.359304
      7          1           0        2.039307    1.495485   -0.932245
      8          1           0        3.639841    2.104899   -1.218197
      9          1           0        2.812323    2.395576    0.328456
     10          1           0        5.099910    1.325911    0.936445
     11          1           0        5.115380   -0.535520    1.061845
     12          1           0        1.096716   -0.527351    0.088763
     13          6           0       -5.153983   -0.991520   -0.679480
     14          6           0       -4.515134    0.216414   -0.642104
     15          6           0       -3.201510    0.306194   -0.037036
     16          6           0       -2.815920   -0.337491    1.136416
     17          6           0       -1.478716   -0.367007    1.548323
     18          7           0       -0.503284    0.345026    0.941482
     19          6           0       -0.907200    1.120256   -0.089161
     20          6           0       -2.220767    1.071907   -0.619661
     21          1           0       -6.094408   -1.135677   -1.189699
     22          1           0       -4.694975   -1.815233   -0.152472
     23          1           0       -4.924370    1.125194   -1.059537
     24          1           0       -3.490277   -0.986770    1.674891
     25          1           0       -1.177280   -0.949060    2.406552
     26          1           0       -0.151252    1.735297   -0.552458
     27          1           0       -2.386985    1.802303   -1.397570
 ---------------------------------------------------------------------
 Rotational constants (GHZ):           1.6397373           0.2439189           0.2345391
 Standard basis: 6-311++G(d,p) (5D, 7F)
 There are   413 symmetry adapted cartesian basis functions of A   symmetry.
 There are   399 symmetry adapted basis functions of A   symmetry.
   399 basis functions,   621 primitive gaussians,   413 cartesian basis functions
    51 alpha electrons       51 beta electrons
       nuclear repulsion energy       792.6813519395 Hartrees.
 NAtoms=   27 NActive=   27 NUniq=   27 SFac= 1.00D+00 NAtFMM=   60 NAOKFM=F Big=F
 Integral buffers will be    131072 words long.
 Raffenetti 2 integral format.
 Two-electron integral symmetry is turned on.
 Nuclear repulsion after empirical dispersion term =      792.6351286858 Hartrees.
 One-electron integrals computed using PRISM.
 NBasis=   399 RedAO= T EigKep=  2.52D-06  NBF=   399
 NBsUse=   399 1.00D-06 EigRej= -1.00D+00 NBFU=   399
 ExpMin= 3.60D-02 ExpMax= 8.59D+03 ExpMxC= 1.30D+03 IAcc=3 IRadAn=         5 AccDes= 0.00D+00
 Harris functional with IExCor=  402 and IRadAn=       5 diagonalized for initial guess.
 HarFok:  IExCor=  402 AccDes= 0.00D+00 IRadAn=         5 IDoV= 1 UseB2=F ITyADJ=14
 ICtDFT=  3500011 ScaDFX=  1.000000  1.000000  1.000000  1.000000
 FoFCou: FMM=F IPFlag=           0 FMFlag=      100000 FMFlg1=           0
         NFxFlg=           0 DoJE=T BraDBF=F KetDBF=T FulRan=T
         wScrn=  0.000000 ICntrl=       500 IOpCl=  0 I1Cent=   200000004 NGrid=           0
         NMat0=    1 NMatS0=      1 NMatT0=    0 NMatD0=    1 NMtDS0=    0 NMtDT0=    0
 Petite list used in FoFCou.
 Requested convergence on RMS density matrix=1.00D-08 within 128 cycles.
 Requested convergence on MAX density matrix=1.00D-06.
 Requested convergence on             energy=1.00D-06.
 No special actions if energy rises.
 SCF Done:  E(RB3LYP) =  -632.358434276     A.U. after   16 cycles
            NFock= 16  Conv=0.42D-08     -V/T= 2.0041
 SCF density gives NOpUse=  1 NOpAll=  1.

 **********************************************************************

            Population analysis using the SCF density.

 **********************************************************************

 Orbital symmetries:
 BldTbl:  Degeneracy threshold= 1.00D-02
       Occupied  (A) (A) (A) (A) (A) (A) (A) (A) (A) (A) (A) (A)
                 (A) (A) (A) (A) (A) (A) (A) (A) (A) (A) (A) (A)
                 (A) (A) (A) (A) (A) (A) (A) (A) (A) (A) (A) (A)
                 (A) (A) (A) (A) (A) (A) (A) (A) (A) (A) (A) (A)
                 (A) (A) (A)
       Virtual   (A) (A) (A) (A) (A) (A) (A) (A) (A) (A) (A) (A)
                 (A) (A) (A) (A) (A) (A) (A) (A) (A) (A) (A) (A)
                 (A) (A) (A) (A) (A) (A) (A) (A) (A) (A) (A) (A)
                 (A) (A) (A) (A) (A) (A) (A) (A) (A) (A) (A) (A)
                 (A) (A) (A) (A) (A) (A) (A) (A) (A) (A) (A) (A)
                 (A) (A) (A) (A) (A) (A) (A) (A) (A) (A) (A) (A)
                 (A) (A) (A) (A) (A) (A) (A) (A) (A) (A) (A) (A)
                 (A) (A) (A) (A) (A) (A) (A) (A) (A) (A) (A) (A)
                 (A) (A) (A) (A) (A) (A) (A) (A) (A) (A) (A) (A)
                 (A) (A) (A) (A) (A) (A) (A) (A) (A) (A) (A) (A)
                 (A) (A) (A) (A) (A) (A) (A) (A) (A) (A) (A) (A)
                 (A) (A) (A) (A) (A) (A) (A) (A) (A) (A) (A) (A)
                 (A) (A) (A) (A) (A) (A) (A) (A) (A) (A) (A) (A)
                 (A) (A) (A) (A) (A) (A) (A) (A) (A) (A) (A) (A)
                 (A) (A) (A) (A) (A) (A) (A) (A) (A) (A) (A) (A)
                 (A) (A) (A) (A) (A) (A) (A) (A) (A) (A) (A) (A)
                 (A) (A) (A) (A) (A) (A) (A) (A) (A) (A) (A) (A)
                 (A) (A) (A) (A) (A) (A) (A) (A) (A) (A) (A) (A)
                 (A) (A) (A) (A) (A) (A) (A) (A) (A) (A) (A) (A)
                 (A) (A) (A) (A) (A) (A) (A) (A) (A) (A) (A) (A)
                 (A) (A) (A) (A) (A) (A) (A) (A) (A) (A) (A) (A)
                 (A) (A) (A) (A) (A) (A) (A) (A) (A) (A) (A) (A)
                 (A) (A) (A) (A) (A) (A) (A) (A) (A) (A) (A) (A)
                 (A) (A) (A) (A) (A) (A) (A) (A) (A) (A) (A) (A)
                 (A) (A) (A) (A) (A) (A) (A) (A) (A) (A) (A) (A)
                 (A) (A) (A) (A) (A) (A) (A) (A) (A) (A) (A) (A)
                 (A) (A) (A) (A) (A) (A) (A) (A) (A) (A) (A) (A)
                 (A) (A) (A) (A) (A) (A) (A) (A) (A) (A) (A) (A)
                 (A) (A) (A) (A) (A) (A) (A) (A) (A) (A) (A) (A)
 The electronic state is 1-A.
 Alpha  occ. eigenvalues --  -19.15461 -19.09607 -14.34050 -10.30223 -10.23481
 Alpha  occ. eigenvalues --  -10.23283 -10.22375 -10.21126 -10.20505 -10.20479
 Alpha  occ. eigenvalues --  -10.20271 -10.18886 -10.17713 -10.16962  -1.07909
 Alpha  occ. eigenvalues --   -0.98850  -0.96654  -0.86373  -0.83149  -0.78519
 Alpha  occ. eigenvalues --   -0.77924  -0.70736  -0.67215  -0.65651  -0.65229
 Alpha  occ. eigenvalues --   -0.60403  -0.59741  -0.54092  -0.51459  -0.50652
 Alpha  occ. eigenvalues --   -0.49606  -0.48107  -0.46640  -0.45003  -0.44824
 Alpha  occ. eigenvalues --   -0.44232  -0.43088  -0.42377  -0.41723  -0.40212
 Alpha  occ. eigenvalues --   -0.39815  -0.39242  -0.38087  -0.36029  -0.33836
 Alpha  occ. eigenvalues --   -0.30602  -0.29720  -0.28732  -0.28469  -0.27795
 Alpha  occ. eigenvalues --   -0.25418
 Alpha virt. eigenvalues --   -0.07918  -0.05093  -0.04760  -0.02049  -0.01338
 Alpha virt. eigenvalues --   -0.00637  -0.00189   0.00746   0.01385   0.02000
 Alpha virt. eigenvalues --    0.02491   0.02885   0.03634   0.03913   0.04279
 Alpha virt. eigenvalues --    0.05001   0.05441   0.05770   0.05948   0.07108
 Alpha virt. eigenvalues --    0.07344   0.07744   0.08116   0.08909   0.09155
 Alpha virt. eigenvalues --    0.09552   0.09727   0.10074   0.10549   0.10792
 Alpha virt. eigenvalues --    0.11215   0.11709   0.11835   0.12484   0.12681
 Alpha virt. eigenvalues --    0.12854   0.13100   0.13574   0.13606   0.14075
 Alpha virt. eigenvalues --    0.14082   0.14253   0.14786   0.14935   0.15520
 Alpha virt. eigenvalues --    0.15634   0.16083   0.16435   0.16656   0.17331
 Alpha virt. eigenvalues --    0.17388   0.17788   0.18524   0.19026   0.19804
 Alpha virt. eigenvalues --    0.20449   0.20755   0.20919   0.21757   0.21962
 Alpha virt. eigenvalues --    0.22414   0.22995   0.23049   0.23385   0.24064
 Alpha virt. eigenvalues --    0.24345   0.24553   0.25227   0.25518   0.25807
 Alpha virt. eigenvalues --    0.26721   0.26953   0.27346   0.28397   0.28683
 Alpha virt. eigenvalues --    0.29229   0.29407   0.30122   0.30515   0.31168
 Alpha virt. eigenvalues --    0.32417   0.32501   0.32672   0.33011   0.33928
 Alpha virt. eigenvalues --    0.34210   0.34999   0.35109   0.35616   0.35961
 Alpha virt. eigenvalues --    0.36258   0.38125   0.38660   0.38983   0.40924
 Alpha virt. eigenvalues --    0.41143   0.43862   0.44766   0.46051   0.47518
 Alpha virt. eigenvalues --    0.48650   0.48901   0.49104   0.49893   0.51416
 Alpha virt. eigenvalues --    0.53501   0.54136   0.54374   0.55663   0.56349
 Alpha virt. eigenvalues --    0.57240   0.57415   0.58525   0.59369   0.60009
 Alpha virt. eigenvalues --    0.60420   0.60624   0.62500   0.63236   0.63865
 Alpha virt. eigenvalues --    0.64887   0.65475   0.65957   0.67662   0.67754
 Alpha virt. eigenvalues --    0.68066   0.69211   0.69845   0.70327   0.70665
 Alpha virt. eigenvalues --    0.71808   0.73224   0.73533   0.74233   0.74619
 Alpha virt. eigenvalues --    0.75250   0.75518   0.76264   0.77191   0.77504
 Alpha virt. eigenvalues --    0.78683   0.80237   0.81512   0.82980   0.83559
 Alpha virt. eigenvalues --    0.85580   0.86914   0.87553   0.88359   0.89036
 Alpha virt. eigenvalues --    0.90114   0.90864   0.91885   0.92168   0.93218
 Alpha virt. eigenvalues --    0.95944   0.96706   0.98319   0.99679   1.03222
 Alpha virt. eigenvalues --    1.05203   1.05949   1.07350   1.08530   1.09478
 Alpha virt. eigenvalues --    1.11600   1.12474   1.13916   1.14669   1.16508
 Alpha virt. eigenvalues --    1.18036   1.20029   1.20559   1.22298   1.23982
 Alpha virt. eigenvalues --    1.25737   1.26792   1.30741   1.32854   1.34538
 Alpha virt. eigenvalues --    1.37602   1.39366   1.40403   1.41998   1.43868
 Alpha virt. eigenvalues --    1.46472   1.47797   1.48330   1.49147   1.49874
 Alpha virt. eigenvalues --    1.50576   1.50896   1.52272   1.54781   1.56298
 Alpha virt. eigenvalues --    1.56378   1.57812   1.58039   1.59290   1.60528
 Alpha virt. eigenvalues --    1.62638   1.63078   1.66046   1.66429   1.68148
 Alpha virt. eigenvalues --    1.69171   1.70058   1.70756   1.72771   1.73517
 Alpha virt. eigenvalues --    1.75023   1.75915   1.76028   1.77987   1.78734
 Alpha virt. eigenvalues --    1.80257   1.81384   1.82671   1.83191   1.85606
 Alpha virt. eigenvalues --    1.86636   1.89495   1.91202   1.91501   1.92771
 Alpha virt. eigenvalues --    1.93134   1.94671   1.97717   2.01509   2.03130
 Alpha virt. eigenvalues --    2.04861   2.05465   2.06189   2.08355   2.09322
 Alpha virt. eigenvalues --    2.10275   2.12659   2.14541   2.16910   2.17615
 Alpha virt. eigenvalues --    2.21281   2.23511   2.24948   2.26952   2.28795
 Alpha virt. eigenvalues --    2.33571   2.36126   2.37285   2.40419   2.41052
 Alpha virt. eigenvalues --    2.43863   2.46170   2.47420   2.48644   2.49667
 Alpha virt. eigenvalues --    2.54419   2.55311   2.56658   2.57688   2.59410
 Alpha virt. eigenvalues --    2.60829   2.62946   2.64373   2.64781   2.65702
 Alpha virt. eigenvalues --    2.66734   2.67338   2.69572   2.71143   2.72198
 Alpha virt. eigenvalues --    2.73427   2.74098   2.75731   2.76297   2.76809
 Alpha virt. eigenvalues --    2.78393   2.80370   2.81504   2.83280   2.84039
 Alpha virt. eigenvalues --    2.88010   2.88551   2.89609   2.91197   2.92275
 Alpha virt. eigenvalues --    2.94771   2.95240   2.96205   2.97455   2.98314
 Alpha virt. eigenvalues --    3.00253   3.02759   3.04742   3.08159   3.17065
 Alpha virt. eigenvalues --    3.17924   3.18526   3.21209   3.23465   3.27757
 Alpha virt. eigenvalues --    3.32432   3.34844   3.39971   3.41462   3.42551
 Alpha virt. eigenvalues --    3.52368   3.53366   3.59250   3.62579   3.67571
 Alpha virt. eigenvalues --    3.72745   3.74904   3.77022   3.77635   3.80664
 Alpha virt. eigenvalues --    3.82363   3.94869   3.95905   3.99257   4.02869
 Alpha virt. eigenvalues --    4.07335   4.09419   4.27381   4.29885   4.32907
 Alpha virt. eigenvalues --    4.38598   4.53331   5.02367   5.07725   5.17281
 Alpha virt. eigenvalues --    5.18035   5.34418   5.61642   5.90006  23.64587
 Alpha virt. eigenvalues --   23.66883  23.82002  23.83375  23.91362  23.96705
 Alpha virt. eigenvalues --   23.98548  24.05651  24.10272  24.15721  24.46871
 Alpha virt. eigenvalues --   35.60219  49.89814  49.97754
          Condensed to atoms (all electrons):
               1          2          3          4          5          6
     1  C    7.596505  -0.409434  -0.938921  -0.594573   0.064325   0.194361
     2  C   -0.409434   7.739316  -1.543326  -0.123308  -0.260570  -0.154031
     3  C   -0.938921  -1.543326   7.966982  -0.218146   0.091468  -0.040454
     4  C   -0.594573  -0.123308  -0.218146   7.245189   0.371383  -0.119572
     5  O    0.064325  -0.260570   0.091468   0.371383   8.068500  -0.087230
     6  O    0.194361  -0.154031  -0.040454  -0.119572  -0.087230   8.231356
     7  H    0.026179   0.094781   0.078250  -0.001668   0.004793  -0.011213
     8  H    0.479005  -0.125453   0.021687  -0.014816   0.001844   0.007007
     9  H    0.359062  -0.004940   0.015888   0.012650  -0.003587  -0.007247
    10  H   -0.038702  -0.114715   0.458209   0.027533  -0.000147  -0.003064
    11  H    0.060547   0.035564   0.285789  -0.028090   0.000069   0.009395
    12  H    0.055055  -0.025452   0.020936  -0.149528   0.006116   0.249589
    13  C    0.000059   0.000509  -0.000073  -0.000370   0.000001   0.000308
    14  C   -0.008494   0.008420   0.000252  -0.005631  -0.000018  -0.007673
    15  C    0.042994  -0.016599  -0.011635  -0.027988  -0.000915   0.015461
    16  C   -0.022576  -0.008550   0.015381   0.037128   0.001704  -0.024900
    17  C    0.004129   0.005143  -0.008782   0.002161  -0.001190   0.018851
    18  N    0.064625   0.017989  -0.012824  -0.071587   0.000234   0.062787
    19  C   -0.016929  -0.025878  -0.002114   0.052362   0.000933   0.045204
    20  C   -0.181984   0.139092   0.019932   0.051163  -0.000690  -0.127569
    21  H   -0.000028   0.000004  -0.000005   0.000046   0.000000  -0.000038
    22  H   -0.000083   0.000253   0.000006   0.000087  -0.000004  -0.000155
    23  H    0.000068  -0.000112   0.000012   0.000076  -0.000002  -0.000061
    24  H   -0.001009  -0.000492   0.000421   0.001384   0.000050  -0.001117
    25  H   -0.002206   0.002878  -0.002619   0.001716  -0.000315   0.003529
    26  H    0.064391  -0.028832  -0.002870  -0.016695  -0.000447   0.004878
    27  H   -0.005281   0.002740   0.000123   0.002568   0.000080  -0.000680
               7          8          9         10         11         12
     1  C    0.026179   0.479005   0.359062  -0.038702   0.060547   0.055055
     2  C    0.094781  -0.125453  -0.004940  -0.114715   0.035564  -0.025452
     3  C    0.078250   0.021687   0.015888   0.458209   0.285789   0.020936
     4  C   -0.001668  -0.014816   0.012650   0.027533  -0.028090  -0.149528
     5  O    0.004793   0.001844  -0.003587  -0.000147   0.000069   0.006116
     6  O   -0.011213   0.007007  -0.007247  -0.003064   0.009395   0.249589
     7  H    0.734615  -0.046147  -0.033101   0.006766  -0.004331   0.018519
     8  H   -0.046147   0.560450  -0.047946   0.002364  -0.001121   0.001535
     9  H   -0.033101  -0.047946   0.554032  -0.000407  -0.000893  -0.015270
    10  H    0.006766   0.002364  -0.000407   0.546341  -0.025656   0.000544
    11  H   -0.004331  -0.001121  -0.000893  -0.025656   0.487962   0.002419
    12  H    0.018519   0.001535  -0.015270   0.000544   0.002419   0.537291
    13  C    0.000617  -0.000030   0.000052  -0.000004   0.000005  -0.001726
    14  C    0.006079  -0.000338  -0.000673  -0.000027  -0.000000   0.008159
    15  C   -0.004645   0.000733  -0.006428  -0.000017   0.000143   0.073203
    16  C   -0.022833   0.000238   0.002791   0.000524  -0.000579   0.002194
    17  C    0.008974  -0.000168   0.002184  -0.000903   0.000666  -0.041009
    18  N   -0.014369   0.003426  -0.006132  -0.000316   0.000950   0.008314
    19  C   -0.007642   0.002486  -0.001336   0.001206  -0.001797   0.036253
    20  C    0.051453  -0.010576   0.009568   0.000136  -0.000334  -0.117395
    21  H   -0.000003  -0.000003   0.000004  -0.000000  -0.000000  -0.000050
    22  H    0.000056  -0.000000  -0.000010  -0.000000   0.000001  -0.000965
    23  H   -0.000171   0.000018  -0.000057   0.000002  -0.000001   0.000306
    24  H   -0.000227  -0.000005   0.000059   0.000011  -0.000022  -0.000332
    25  H    0.000746  -0.000216   0.000940  -0.000171   0.000103  -0.006985
    26  H   -0.019135   0.003672  -0.002816  -0.000184   0.000204   0.001555
    27  H   -0.000625  -0.000621   0.001766  -0.000024   0.000000  -0.003167
              13         14         15         16         17         18
     1  C    0.000059  -0.008494   0.042994  -0.022576   0.004129   0.064625
     2  C    0.000509   0.008420  -0.016599  -0.008550   0.005143   0.017989
     3  C   -0.000073   0.000252  -0.011635   0.015381  -0.008782  -0.012824
     4  C   -0.000370  -0.005631  -0.027988   0.037128   0.002161  -0.071587
     5  O    0.000001  -0.000018  -0.000915   0.001704  -0.001190   0.000234
     6  O    0.000308  -0.007673   0.015461  -0.024900   0.018851   0.062787
     7  H    0.000617   0.006079  -0.004645  -0.022833   0.008974  -0.014369
     8  H   -0.000030  -0.000338   0.000733   0.000238  -0.000168   0.003426
     9  H    0.000052  -0.000673  -0.006428   0.002791   0.002184  -0.006132
    10  H   -0.000004  -0.000027  -0.000017   0.000524  -0.000903  -0.000316
    11  H    0.000005  -0.000000   0.000143  -0.000579   0.000666   0.000950
    12  H   -0.001726   0.008159   0.073203   0.002194  -0.041009   0.008314
    13  C    5.473012   0.392174  -0.391577  -0.119314   0.049224   0.011980
    14  C    0.392174   7.812943  -1.459481  -0.650437  -0.213315   0.090636
    15  C   -0.391577  -1.459481  12.392517  -2.084280   0.697875  -0.176912
    16  C   -0.119314  -0.650437  -2.084280  11.203387  -0.630787   0.016866
    17  C    0.049224  -0.213315   0.697875  -0.630787   6.882015   0.030996
    18  N    0.011980   0.090636  -0.176912   0.016866   0.030996   6.903757
    19  C   -0.082755  -0.797088   2.319178  -0.509936   0.753045  -0.034617
    20  C    0.515976   0.419934  -5.417659  -1.313777  -1.656692   0.298245
    21  H    0.388780  -0.017915  -0.001095   0.031080   0.000366  -0.000157
    22  H    0.391250   0.032104  -0.101061  -0.006506  -0.006109   0.000666
    23  H   -0.070052   0.421853   0.008140  -0.025201  -0.006611  -0.002136
    24  H    0.006976   0.030185  -0.235488   0.493691  -0.076912   0.009945
    25  H    0.002039  -0.007549   0.021084  -0.141237   0.537643  -0.101282
    26  H    0.000723   0.034515   0.001545  -0.058609  -0.031438  -0.065563
    27  H    0.015577  -0.039383  -0.147844   0.161173   0.004286   0.012251
              19         20         21         22         23         24
     1  C   -0.016929  -0.181984  -0.000028  -0.000083   0.000068  -0.001009
     2  C   -0.025878   0.139092   0.000004   0.000253  -0.000112  -0.000492
     3  C   -0.002114   0.019932  -0.000005   0.000006   0.000012   0.000421
     4  C    0.052362   0.051163   0.000046   0.000087   0.000076   0.001384
     5  O    0.000933  -0.000690   0.000000  -0.000004  -0.000002   0.000050
     6  O    0.045204  -0.127569  -0.000038  -0.000155  -0.000061  -0.001117
     7  H   -0.007642   0.051453  -0.000003   0.000056  -0.000171  -0.000227
     8  H    0.002486  -0.010576  -0.000003  -0.000000   0.000018  -0.000005
     9  H   -0.001336   0.009568   0.000004  -0.000010  -0.000057   0.000059
    10  H    0.001206   0.000136  -0.000000  -0.000000   0.000002   0.000011
    11  H   -0.001797  -0.000334  -0.000000   0.000001  -0.000001  -0.000022
    12  H    0.036253  -0.117395  -0.000050  -0.000965   0.000306  -0.000332
    13  C   -0.082755   0.515976   0.388780   0.391250  -0.070052   0.006976
    14  C   -0.797088   0.419934  -0.017915   0.032104   0.421853   0.030185
    15  C    2.319178  -5.417659  -0.001095  -0.101061   0.008140  -0.235488
    16  C   -0.509936  -1.313777   0.031080  -0.006506  -0.025201   0.493691
    17  C    0.753045  -1.656692   0.000366  -0.006109  -0.006611  -0.076912
    18  N   -0.034617   0.298245  -0.000157   0.000666  -0.002136   0.009945
    19  C    8.340454  -3.852612  -0.004948  -0.012668   0.024949  -0.052116
    20  C   -3.852612  16.535155  -0.022998   0.038310  -0.071247   0.107759
    21  H   -0.004948  -0.022998   0.513542  -0.030804  -0.010969   0.000287
    22  H   -0.012668   0.038310  -0.030804   0.548366   0.009400   0.002231
    23  H    0.024949  -0.071247  -0.010969   0.009400   0.529553   0.000520
    24  H   -0.052116   0.107759   0.000287   0.002231   0.000520   0.556438
    25  H    0.035374  -0.044853   0.000058  -0.000357  -0.000386  -0.012447
    26  H    0.362894   0.063370  -0.000158   0.000724   0.002022   0.000759
    27  H   -0.087097   0.362125   0.000051   0.000088  -0.007327   0.001480
              25         26         27
     1  C   -0.002206   0.064391  -0.005281
     2  C    0.002878  -0.028832   0.002740
     3  C   -0.002619  -0.002870   0.000123
     4  C    0.001716  -0.016695   0.002568
     5  O   -0.000315  -0.000447   0.000080
     6  O    0.003529   0.004878  -0.000680
     7  H    0.000746  -0.019135  -0.000625
     8  H   -0.000216   0.003672  -0.000621
     9  H    0.000940  -0.002816   0.001766
    10  H   -0.000171  -0.000184  -0.000024
    11  H    0.000103   0.000204   0.000000
    12  H   -0.006985   0.001555  -0.003167
    13  C    0.002039   0.000723   0.015577
    14  C   -0.007549   0.034515  -0.039383
    15  C    0.021084   0.001545  -0.147844
    16  C   -0.141237  -0.058609   0.161173
    17  C    0.537643  -0.031438   0.004286
    18  N   -0.101282  -0.065563   0.012251
    19  C    0.035374   0.362894  -0.087097
    20  C   -0.044853   0.063370   0.362125
    21  H    0.000058  -0.000158   0.000051
    22  H   -0.000357   0.000724   0.000088
    23  H   -0.000386   0.002022  -0.007327
    24  H   -0.012447   0.000759   0.001480
    25  H    0.528946  -0.005055   0.001887
    26  H   -0.005055   0.621398  -0.024234
    27  H    0.001887  -0.024234   0.560669
 Mulliken charges:
               1
     1  C   -0.791083
     2  C    0.795006
     3  C   -0.193569
     4  C   -0.433472
     5  O   -0.256385
     6  O   -0.257723
     7  H    0.134279
     8  H    0.162975
     9  H    0.171847
    10  H    0.140702
    11  H    0.179006
    12  H    0.339892
    13  C   -0.583363
    14  C   -0.049231
    15  C    0.510751
    16  C   -0.346636
    17  C   -0.323639
    18  N   -0.047772
    19  C   -0.484805
    20  C    0.206169
    21  H    0.154952
    22  H    0.135180
    23  H    0.197412
    24  H    0.167971
    25  H    0.188734
    26  H    0.093387
    27  H    0.189419
 Sum of Mulliken charges =  -0.00000
 Mulliken charges with hydrogens summed into heavy atoms:
               1
     1  C   -0.321982
     2  C    0.795006
     3  C    0.126139
     4  C   -0.433472
     5  O   -0.256385
     6  O    0.082169
    13  C   -0.293231
    14  C    0.148180
    15  C    0.510751
    16  C   -0.178665
    17  C   -0.134905
    18  N   -0.047772
    19  C   -0.391419
    20  C    0.395587
 DipInt: DoE/N= T F RetVal/Mat= T F Init=T NMatP=  1 IDeriv=0 Min/MaxMlt=  0  4
 Entering OneElI...
 OneElI was handed 25769367289 working-precision words.
 Multipole integrals L=0 to 4 MinM= 0 MaxM= 0.
 Requested accuracy = 0.1000D-12
 ShPair: Thresh= 1.00D-13 NBox=     0 BxSize= 0.00D+00 RnKept= 2.20D+01
         NSMCal=                11175 NSMKep=                9397
 PrmmSu-InSpLW:  IPartL=    0 NPrtUS=    1 NPrtUL=    1 DoSpLW=F IThBeg=    0 IThEnd=    0 NThAct=    1.
 PrsmSu:  NPrtUS=   1 ThrOK=F IAlg=1 NPAlg=1 LenDen=           0 ISkipM=0 DoSpLW=F IThBeg=    0 IThEnd=    0.
 Prism:   IPart=     0 DynPar=F LinDyn=F Incr=          93.
 PRISM was handed 25768742700 working-precision words and  9397 shell-pairs
 IPart=  0 NShTot=        9397 NBatch=         102 AvBLen=        92.1
 PrsmSu-ThDecC:  IPartSL=    0    0 NPrtUSL=    1    1 IThBeg=    0 IThEnd=    0 CPU=   -1 GPU=   -1 NThAct=    1.
 PrSmSu:  NxtVal=             94.
 Electronic moments (au):
       -102.00000000         -2.14872235          1.68812761          0.38947774
      -3876.92234623       -464.55845777       -297.34586187         12.25922011
          5.53039717         -6.58132246       1937.21087293        -22.02847096
       -275.11577364       -926.64109261       1345.90897165       1402.11786082
        343.93833869         81.99296630        338.73388724       -393.43587805
    -249917.69840804      -5149.53943684      -2520.46096941     -10240.63991732
     -15732.40897925        251.95427774       -156.30037326        638.99410541
        309.07533238     -17814.12846329     -10327.54608683      -1227.45506658
      -2816.37104390        978.33864612       -267.59985426
 Electronic spatial extent (au):  <R**2>=           4638.8267
 DipInt: DoE/N= F T RetVal/Mat= T F Init=T NMatP=  1 IDeriv=0 Min/MaxMlt=  0  4
 Nuclear    moments (au):
        102.00000000          0.00000000         -0.00000000          0.00000000
       3818.82432888        399.45631400        234.89115033          0.00000000
         -0.00000000         -0.00000000      -2036.51635528         38.72825710
        278.88118237        893.72152236      -1289.08738204      -1387.23747503
       -344.67205125        -86.92480265       -332.56491746        386.86941825
     236320.18873915       3440.71232614       1433.38537589      10894.65524019
      16403.84626544       -130.25299589        105.32144020       -713.07100641
       -357.60454652      15098.00468565       7752.68297403        780.27859528
       2624.43348649       -897.29704379        279.59624671
 Total      moments (au):
          0.00000000         -2.14872235          1.68812761          0.38947774
        -58.09801735        -65.10214378        -62.45471153         12.25922011
          5.53039717         -6.58132246        -99.30548235         16.69978614
          3.76540872        -32.91957025         56.82158962         14.88038579
         -0.73371256         -4.93183635          6.16896978         -6.56645980
     -13597.50966889      -1708.82711069      -1087.07559351        654.01532287
        671.43728618        121.70128185        -50.97893306        -74.07690100
        -48.52921414      -2716.12377764      -2574.86311281       -447.17647130
       -191.93755741         81.04160233         11.99639245
 Traceless Quadrup. (au):
          3.78694021         -3.21718622         -0.56975398         12.25922011
          5.53039717         -6.58132246
 Charge=              0.0000 electrons
 Dipole moment (field-independent basis, Debye):
    X=             -5.4615    Y=              4.2908    Z=              0.9900  Tot=              7.0156
 Quadrupole moment (field-independent basis, Debye-Ang):
   XX=            -78.1438   YY=            -87.5646   ZZ=            -84.0037
   XY=             16.4891   XZ=              7.4386   YZ=             -8.8521
 Traceless Quadrupole moment (field-independent basis, Debye-Ang):
   XX=              5.0936   YY=             -4.3272   ZZ=             -0.7663
   XY=             16.4891   XZ=              7.4386   YZ=             -8.8521
 Octapole moment (field-independent basis, Debye-Ang**2):
  XXX=            -70.6818  YYY=             11.8863  ZZZ=              2.6801  XYY=            -23.4309
  XXY=             40.4434  XXZ=             10.5913  XZZ=             -0.5222  YZZ=             -3.5103
  YYZ=              4.3908  XYZ=             -4.6738
 Hexadecapole moment (field-independent basis, Debye-Ang**3):
 XXXX=          -5121.4742 YYYY=           -643.6262 ZZZZ=           -409.4448 XXXY=            246.3335
 XXXZ=            252.8955 YYYX=             45.8385 YYYZ=            -19.2011 ZZZX=            -27.9009
 ZZZY=            -18.2784 XXYY=          -1023.0225 XXZZ=           -969.8169 YYZZ=           -168.4281
 XXYZ=            -72.2929 YYXZ=             30.5242 ZZXY=              4.5184
 N-N= 7.926351286858D+02 E-N=-3.058749108034D+03  KE= 6.298058894942D+02
 Entering OneElI...
 OneElI was handed 25769463047 working-precision words.
 Calculate electrostatic properties
    NBasis =   399  MinDer = 0  MaxDer = 0
    NGrid  =    27  NMatD  =   1
 Requested accuracy = 0.1000D-12
 ShPair: Thresh= 1.00D-13 NBox=     0 BxSize= 0.00D+00 RnKept= 2.20D+01
         NSMCal=                11175 NSMKep=                8683
 PrmmSu-InSpLW:  IPartL=    0 NPrtUS=   48 NPrtUL=    1 DoSpLW=F IThBeg=    0 IThEnd=   47 NThAct=   48.
 PrsmSu:  NPrtUS=  48 ThrOK=T IAlg=1 NPAlg=1 LenDen=           0 ISkipM=0 DoSpLW=F IThBeg=    0 IThEnd=   47.
 Prism:   IPart=     0 DynPar=F LinDyn=F Incr=          48.
 PRISM was handed   536681716 working-precision words and  8683 shell-pairs
 PRISM was handed   536681716 working-precision words and  8683 shell-pairs
 PRISM was handed   536681716 working-precision words and  8683 shell-pairs
 PRISM was handed   536681716 working-precision words and  8683 shell-pairs
 PRISM was handed   536681716 working-precision words and  8683 shell-pairs
 PRISM was handed   536681716 working-precision words and  8683 shell-pairs
 PRISM was handed   536681716 working-precision words and  8683 shell-pairs
 PRISM was handed   536681716 working-precision words and  8683 shell-pairs
 PRISM was handed   536681716 working-precision words and  8683 shell-pairs
 PRISM was handed   536681716 working-precision words and  8683 shell-pairs
 PRISM was handed   536681716 working-precision words and  8683 shell-pairs
 PRISM was handed   536681716 working-precision words and  8683 shell-pairs
 PRISM was handed   536681716 working-precision words and  8683 shell-pairs
 PRISM was handed   536681716 working-precision words and  8683 shell-pairs
 PRISM was handed   536681716 working-precision words and  8683 shell-pairs
 PRISM was handed   536681716 working-precision words and  8683 shell-pairs
 PRISM was handed   536681716 working-precision words and  8683 shell-pairs
 PRISM was handed   536681716 working-precision words and  8683 shell-pairs
 PRISM was handed   536681716 working-precision words and  8683 shell-pairs
 PRISM was handed   536681716 working-precision words and  8683 shell-pairs
 PRISM was handed   536681716 working-precision words and  8683 shell-pairs
 PRISM was handed   536681716 working-precision words and  8683 shell-pairs
 PRISM was handed   536681716 working-precision words and  8683 shell-pairs
 PRISM was handed   536681716 working-precision words and  8683 shell-pairs
 PRISM was handed   536681716 working-precision words and  8683 shell-pairs
 PRISM was handed   536681716 working-precision words and  8683 shell-pairs
 PRISM was handed   536681716 working-precision words and  8683 shell-pairs
 PRISM was handed   536681716 working-precision words and  8683 shell-pairs
 PRISM was handed   536681716 working-precision words and  8683 shell-pairs
 PRISM was handed   536681716 working-precision words and  8683 shell-pairs
 PRISM was handed   536681716 working-precision words and  8683 shell-pairs
 PRISM was handed   536681716 working-precision words and  8683 shell-pairs
 PRISM was handed   536681716 working-precision words and  8683 shell-pairs
 PRISM was handed   536681716 working-precision words and  8683 shell-pairs
 PRISM was handed   536681716 working-precision words and  8683 shell-pairs
 PRISM was handed   536681716 working-precision words and  8683 shell-pairs
 PRISM was handed   536681716 working-precision words and  8683 shell-pairs
 PRISM was handed   536681716 working-precision words and  8683 shell-pairs
 PRISM was handed   536681716 working-precision words and  8683 shell-pairs
 PRISM was handed   536681716 working-precision words and  8683 shell-pairs
 PRISM was handed   536681716 working-precision words and  8683 shell-pairs
 PRISM was handed   536681716 working-precision words and  8683 shell-pairs
 PRISM was handed   536681716 working-precision words and  8683 shell-pairs
 PRISM was handed   536681716 working-precision words and  8683 shell-pairs
 PRISM was handed   536681716 working-precision words and  8683 shell-pairs
 PRISM was handed   536681716 working-precision words and  8683 shell-pairs
 PRISM was handed   536681716 working-precision words and  8683 shell-pairs
 PRISM was handed   536681716 working-precision words and  8683 shell-pairs
 IPart= 32 NShTot=        4617 NBatch=         171 AvBLen=        27.0
 PrsmSu-ThDecC:  IPartSL=   32    0 NPrtUSL=   48    1 IThBeg=    0 IThEnd=   47 CPU=   -1 GPU=   -1 NThAct=   48.
 IPart=  0 NShTot=        5859 NBatch=         217 AvBLen=        27.0
 PrsmSu-ThDecC:  IPartSL=    0    0 NPrtUSL=   48    1 IThBeg=    0 IThEnd=   47 CPU=   -1 GPU=   -1 NThAct=   47.
 IPart= 45 NShTot=        4428 NBatch=         164 AvBLen=        27.0
 PrsmSu-ThDecC:  IPartSL=   45    0 NPrtUSL=   48    1 IThBeg=    0 IThEnd=   47 CPU=   -1 GPU=   -1 NThAct=   46.
 IPart= 18 NShTot=        4860 NBatch=         180 AvBLen=        27.0
 PrsmSu-ThDecC:  IPartSL=   18    0 NPrtUSL=   48    1 IThBeg=    0 IThEnd=   47 CPU=   -1 GPU=   -1 NThAct=   45.
 IPart= 46 NShTot=        4428 NBatch=         164 AvBLen=        27.0
 PrsmSu-ThDecC:  IPartSL=   46    0 NPrtUSL=   48    1 IThBeg=    0 IThEnd=   47 CPU=   -1 GPU=   -1 NThAct=   44.
 IPart= 34 NShTot=        4563 NBatch=         169 AvBLen=        27.0
 PrsmSu-ThDecC:  IPartSL=   34    0 NPrtUSL=   48    1 IThBeg=    0 IThEnd=   47 CPU=   -1 GPU=   -1 NThAct=   43.
 IPart= 33 NShTot=        4590 NBatch=         170 AvBLen=        27.0
 PrsmSu-ThDecC:  IPartSL=   33    0 NPrtUSL=   48    1 IThBeg=    0 IThEnd=   47 CPU=   -1 GPU=   -1 NThAct=   42.
 IPart= 42 NShTot=        4509 NBatch=         167 AvBLen=        27.0
 PrsmSu-ThDecC:  IPartSL=   42    0 NPrtUSL=   48    1 IThBeg=    0 IThEnd=   47 CPU=   -1 GPU=   -1 NThAct=   41.
 IPart= 38 NShTot=        4563 NBatch=         169 AvBLen=        27.0
 PrsmSu-ThDecC:  IPartSL=   38    0 NPrtUSL=   48    1 IThBeg=    0 IThEnd=   47 CPU=   -1 GPU=   -1 NThAct=   40.
 IPart= 27 NShTot=        4671 NBatch=         173 AvBLen=        27.0
 PrsmSu-ThDecC:  IPartSL=   27    0 NPrtUSL=   48    1 IThBeg=    0 IThEnd=   47 CPU=   -1 GPU=   -1 NThAct=   39.
 IPart= 35 NShTot=        4563 NBatch=         169 AvBLen=        27.0
 PrsmSu-ThDecC:  IPartSL=   35    0 NPrtUSL=   48    1 IThBeg=    0 IThEnd=   47 CPU=   -1 GPU=   -1 NThAct=   38.
 IPart= 30 NShTot=        4671 NBatch=         173 AvBLen=        27.0
 PrsmSu-ThDecC:  IPartSL=   30    0 NPrtUSL=   48    1 IThBeg=    0 IThEnd=   47 CPU=   -1 GPU=   -1 NThAct=   37.
 IPart= 24 NShTot=        4752 NBatch=         176 AvBLen=        27.0
 PrsmSu-ThDecC:  IPartSL=   24    0 NPrtUSL=   48    1 IThBeg=    0 IThEnd=   47 CPU=   -1 GPU=   -1 NThAct=   36.
 IPart= 47 NShTot=        4428 NBatch=         164 AvBLen=        27.0
 PrsmSu-ThDecC:  IPartSL=   47    0 NPrtUSL=   48    1 IThBeg=    0 IThEnd=   47 CPU=   -1 GPU=   -1 NThAct=   35.
 IPart= 13 NShTot=        5076 NBatch=         188 AvBLen=        27.0
 PrsmSu-ThDecC:  IPartSL=   13    0 NPrtUSL=   48    1 IThBeg=    0 IThEnd=   47 CPU=   -1 GPU=   -1 NThAct=   34.
 IPart=  2 NShTot=        5670 NBatch=         210 AvBLen=        27.0
 PrsmSu-ThDecC:  IPartSL=    2    0 NPrtUSL=   48    1 IThBeg=    0 IThEnd=   47 CPU=   -1 GPU=   -1 NThAct=   33.
 IPart= 16 NShTot=        4914 NBatch=         182 AvBLen=        27.0
 PrsmSu-ThDecC:  IPartSL=   16    0 NPrtUSL=   48    1 IThBeg=    0 IThEnd=   47 CPU=   -1 GPU=   -1 NThAct=   32.
 IPart= 10 NShTot=        5292 NBatch=         196 AvBLen=        27.0
 IPart= 28 NShTot=        4671 NBatch=         173 AvBLen=        27.0
 PrsmSu-ThDecC:  IPartSL=   10    0 NPrtUSL=   48    1 IThBeg=    0 IThEnd=   47 CPU=   -1 GPU=   -1 NThAct=   31.
 PrsmSu-ThDecC:  IPartSL=   28    0 NPrtUSL=   48    1 IThBeg=    0 IThEnd=   47 CPU=   -1 GPU=   -1 NThAct=   30.
 IPart= 14 NShTot=        4968 NBatch=         184 AvBLen=        27.0
 PrsmSu-ThDecC:  IPartSL=   14    0 NPrtUSL=   48    1 IThBeg=    0 IThEnd=   47 CPU=   -1 GPU=   -1 NThAct=   29.
 IPart= 37 NShTot=        4563 NBatch=         169 AvBLen=        27.0
 PrsmSu-ThDecC:  IPartSL=   37    0 NPrtUSL=   48    1 IThBeg=    0 IThEnd=   47 CPU=   -1 GPU=   -1 NThAct=   28.
 IPart= 23 NShTot=        4779 NBatch=         177 AvBLen=        27.0
 PrsmSu-ThDecC:  IPartSL=   23    0 NPrtUSL=   48    1 IThBeg=    0 IThEnd=   47 CPU=   -1 GPU=   -1 NThAct=   27.
 IPart= 17 NShTot=        4887 NBatch=         181 AvBLen=        27.0
 PrsmSu-ThDecC:  IPartSL=   17    0 NPrtUSL=   48    1 IThBeg=    0 IThEnd=   47 CPU=   -1 GPU=   -1 NThAct=   26.
 IPart=  7 NShTot=        5427 NBatch=         201 AvBLen=        27.0
 PrsmSu-ThDecC:  IPartSL=    7    0 NPrtUSL=   48    1 IThBeg=    0 IThEnd=   47 CPU=   -1 GPU=   -1 NThAct=   25.
 IPart=  8 NShTot=        5346 NBatch=         198 AvBLen=        27.0
 PrsmSu-ThDecC:  IPartSL=    8    0 NPrtUSL=   48    1 IThBeg=    0 IThEnd=   47 CPU=   -1 GPU=   -1 NThAct=   24.
 IPart= 11 NShTot=        5184 NBatch=         192 AvBLen=        27.0
 PrsmSu-ThDecC:  IPartSL=   11    0 NPrtUSL=   48    1 IThBeg=    0 IThEnd=   47 CPU=   -1 GPU=   -1 NThAct=   23.
 IPart= 43 NShTot=        4509 NBatch=         167 AvBLen=        27.0
 PrsmSu-ThDecC:  IPartSL=   43    0 NPrtUSL=   48    1 IThBeg=    0 IThEnd=   47 CPU=   -1 GPU=   -1 NThAct=   22.
 IPart=  3 NShTot=        5589 NBatch=         207 AvBLen=        27.0
 PrsmSu-ThDecC:  IPartSL=    3    0 NPrtUSL=   48    1 IThBeg=    0 IThEnd=   47 CPU=   -1 GPU=   -1 NThAct=   21.
 IPart= 20 NShTot=        4806 NBatch=         178 AvBLen=        27.0
 PrsmSu-ThDecC:  IPartSL=   20    0 NPrtUSL=   48    1 IThBeg=    0 IThEnd=   47 CPU=   -1 GPU=   -1 NThAct=   20.
 IPart= 21 NShTot=        4806 NBatch=         178 AvBLen=        27.0
 PrsmSu-ThDecC:  IPartSL=   21    0 NPrtUSL=   48    1 IThBeg=    0 IThEnd=   47 CPU=   -1 GPU=   -1 NThAct=   19.
 IPart=  6 NShTot=        5454 NBatch=         202 AvBLen=        27.0
 PrsmSu-ThDecC:  IPartSL=    6    0 NPrtUSL=   48    1 IThBeg=    0 IThEnd=   47 CPU=   -1 GPU=   -1 NThAct=   18.
 IPart=  9 NShTot=        5292 NBatch=         196 AvBLen=        27.0
 PrsmSu-ThDecC:  IPartSL=    9    0 NPrtUSL=   48    1 IThBeg=    0 IThEnd=   47 CPU=   -1 GPU=   -1 NThAct=   17.
 IPart= 40 NShTot=        4536 NBatch=         168 AvBLen=        27.0
 PrsmSu-ThDecC:  IPartSL=   40    0 NPrtUSL=   48    1 IThBeg=    0 IThEnd=   47 CPU=   -1 GPU=   -1 NThAct=   16.
 IPart= 25 NShTot=        4698 NBatch=         174 AvBLen=        27.0
 PrsmSu-ThDecC:  IPartSL=   25    0 NPrtUSL=   48    1 IThBeg=    0 IThEnd=   47 CPU=   -1 GPU=   -1 NThAct=   15.
 IPart= 44 NShTot=        4482 NBatch=         166 AvBLen=        27.0
 PrsmSu-ThDecC:  IPartSL=   44    0 NPrtUSL=   48    1 IThBeg=    0 IThEnd=   47 CPU=   -1 GPU=   -1 NThAct=   14.
 IPart=  5 NShTot=        5481 NBatch=         203 AvBLen=        27.0
 PrsmSu-ThDecC:  IPartSL=    5    0 NPrtUSL=   48    1 IThBeg=    0 IThEnd=   47 CPU=   -1 GPU=   -1 NThAct=   13.
 IPart= 26 NShTot=        4671 NBatch=         173 AvBLen=        27.0
 PrsmSu-ThDecC:  IPartSL=   26    0 NPrtUSL=   48    1 IThBeg=    0 IThEnd=   47 CPU=   -1 GPU=   -1 NThAct=   12.
 IPart= 31 NShTot=        4617 NBatch=         171 AvBLen=        27.0
 PrsmSu-ThDecC:  IPartSL=   31    0 NPrtUSL=   48    1 IThBeg=    0 IThEnd=   47 CPU=   -1 GPU=   -1 NThAct=   11.
 IPart= 39 NShTot=        4536 NBatch=         168 AvBLen=        27.0
 PrsmSu-ThDecC:  IPartSL=   39    0 NPrtUSL=   48    1 IThBeg=    0 IThEnd=   47 CPU=   -1 GPU=   -1 NThAct=   10.
 IPart= 15 NShTot=        4941 NBatch=         183 AvBLen=        27.0
 PrsmSu-ThDecC:  IPartSL=   15    0 NPrtUSL=   48    1 IThBeg=    0 IThEnd=   47 CPU=   -1 GPU=   -1 NThAct=    9.
 IPart= 22 NShTot=        4806 NBatch=         178 AvBLen=        27.0
 PrsmSu-ThDecC:  IPartSL=   22    0 NPrtUSL=   48    1 IThBeg=    0 IThEnd=   47 CPU=   -1 GPU=   -1 NThAct=    8.
 IPart= 29 NShTot=        4671 NBatch=         173 AvBLen=        27.0
 PrsmSu-ThDecC:  IPartSL=   29    0 NPrtUSL=   48    1 IThBeg=    0 IThEnd=   47 CPU=   -1 GPU=   -1 NThAct=    7.
 IPart= 41 NShTot=        4509 NBatch=         167 AvBLen=        27.0
 PrsmSu-ThDecC:  IPartSL=   41    0 NPrtUSL=   48    1 IThBeg=    0 IThEnd=   47 CPU=   -1 GPU=   -1 NThAct=    6.
 IPart= 36 NShTot=        4563 NBatch=         169 AvBLen=        27.0
 PrsmSu-ThDecC:  IPartSL=   36    0 NPrtUSL=   48    1 IThBeg=    0 IThEnd=   47 CPU=   -1 GPU=   -1 NThAct=    5.
 IPart= 12 NShTot=        5130 NBatch=         190 AvBLen=        27.0
 PrsmSu-ThDecC:  IPartSL=   12    0 NPrtUSL=   48    1 IThBeg=    0 IThEnd=   47 CPU=   -1 GPU=   -1 NThAct=    4.
 IPart= 19 NShTot=        4806 NBatch=         178 AvBLen=        27.0
 PrsmSu-ThDecC:  IPartSL=   19    0 NPrtUSL=   48    1 IThBeg=    0 IThEnd=   47 CPU=   -1 GPU=   -1 NThAct=    3.
 IPart=  4 NShTot=        5481 NBatch=         203 AvBLen=        27.0
 PrsmSu-ThDecC:  IPartSL=    4    0 NPrtUSL=   48    1 IThBeg=    0 IThEnd=   47 CPU=   -1 GPU=   -1 NThAct=    2.
 IPart=  1 NShTot=        5778 NBatch=         214 AvBLen=        27.0
 PrsmSu-ThDecC:  IPartSL=    1    0 NPrtUSL=   48    1 IThBeg=    0 IThEnd=   47 CPU=   -1 GPU=   -1 NThAct=    1.
 PrSmSu:  NxtVal=           2305.
 --------------------------------------------------------
       Center         ----      EFG at Nuclei      ----
                      3XX-RR        3YY-RR        3ZZ-RR
 --------------------------------------------------------
     1   Atom        0.010896     -0.038797      0.027901
     2   Atom        0.110097     -0.006388     -0.103710
     3   Atom        0.017537      0.101983     -0.119519
     4   Atom       -0.035155      0.312669     -0.277514
     5   Atom        0.701990      0.185598     -0.887588
     6   Atom       -1.289854      0.564387      0.725467
     7   Atom       -0.208695      0.135823      0.072872
     8   Atom       -0.005051      0.075042     -0.069991
     9   Atom        0.143508     -0.054528     -0.088980
    10   Atom        0.066086     -0.217964      0.151878
    11   Atom        0.054711     -0.177810      0.123099
    12   Atom       -0.008733     -0.098044      0.106777
    13   Atom        0.042640      0.172134     -0.214774
    14   Atom        0.012798      0.181886     -0.194684
    15   Atom        0.125607     -0.124863     -0.000743
    16   Atom        0.135532     -0.143377      0.007845
    17   Atom        0.140621     -0.151560      0.010939
    18   Atom        0.837980     -0.517568     -0.320412
    19   Atom        0.208432     -0.122250     -0.086182
    20   Atom        0.133770     -0.093205     -0.040565
    21   Atom       -0.208670      0.149431      0.059239
    22   Atom        0.071298     -0.126386      0.055087
    23   Atom        0.086212     -0.180311      0.094099
    24   Atom       -0.035319     -0.003137      0.038455
    25   Atom        0.115000      0.024889     -0.139889
    26   Atom       -0.079982      0.007272      0.072710
    27   Atom        0.138033     -0.048358     -0.089675
 --------------------------------------------------------
                        XY            XZ            YZ
 --------------------------------------------------------
     1   Atom        0.028119     -0.007488      0.022181
     2   Atom       -0.030138      0.225277     -0.015139
     3   Atom       -0.009412      0.287461     -0.013595
     4   Atom       -0.019574     -0.039714      0.242857
     5   Atom        1.428219      0.056129      0.325467
     6   Atom        0.152739      0.748029     -0.344145
     7   Atom       -0.061029     -0.181577     -0.028986
     8   Atom       -0.107787      0.190701      0.133983
     9   Atom        0.055056      0.053162     -0.223691
    10   Atom       -0.185583     -0.047163     -0.078533
    11   Atom        0.180718     -0.071282      0.123303
    12   Atom        0.273686      0.198335     -0.242472
    13   Atom        0.072919      0.213335     -0.078175
    14   Atom        0.090174      0.151011     -0.088622
    15   Atom        0.151678      0.085261     -0.279538
    16   Atom        0.066859      0.059782     -0.184959
    17   Atom        0.020816      0.131715     -0.235432
    18   Atom        0.024631      0.442369     -0.152217
    19   Atom        0.117377      0.040857     -0.204811
    20   Atom        0.091970      0.047983     -0.200484
    21   Atom       -0.058466     -0.204847     -0.027362
    22   Atom        0.151969     -0.105426      0.180430
    23   Atom        0.148558     -0.077696      0.161575
    24   Atom       -0.182859      0.144942      0.150910
    25   Atom        0.067323     -0.103550      0.212601
    26   Atom       -0.190878      0.140135      0.127842
    27   Atom        0.047263     -0.060190      0.241974
 --------------------------------------------------------


 ---------------------------------------------------------------------------------
              Nuclear Quadrupole Coupling Constant in Principal Axis System
 ---------------------------------------------------------------------------------

       Atom             a.u.   MegaHertz   Gauss  10(-4) cm-1        Axes

              Baa    -0.6480     3.112     1.110     1.038 -0.1969  0.7601  0.6192
    18 N(14)  Bbb    -0.3401     1.633     0.583     0.545 -0.2553 -0.6496  0.7161
              Bcc     0.9880    -4.745    -1.693    -1.583  0.9466 -0.0171  0.3220
 

 ---------------------------------------------------------------------------------

 No NMR shielding tensors so no spin-rotation constants.
 Leave Link  601 at Thu Apr 21 14:54:53 2022, MaxMem= 25769803776 cpu:              17.7 elap:               0.5
 Calling FoFJK, ICntrl=      2127 FMM=F ISym2X=0 I1Cent= 0 IOpClX= 0 NMat=1 NMatS=1 NMatT=0.
 ***** Axes restored to original set *****
 -------------------------------------------------------------------
 Center     Atomic                   Forces (Hartrees/Bohr)
 Number     Number              X              Y              Z
 -------------------------------------------------------------------
      1        6          -0.025248823   -0.000769135   -0.005875495
      2        6          -0.070218712   -0.006696796   -0.005093599
      3        6           0.059742782    0.019500742    0.020350370
      4        6           0.084721072   -0.035320173   -0.059341585
      5        8          -0.064935359   -0.011564299    0.033194940
      6        8           0.024143414    0.036213648   -0.024344066
      7        1          -0.002722191    0.000285701   -0.001559814
      8        1          -0.000673755    0.002965038    0.001873591
      9        1           0.006296769    0.000927712    0.002534877
     10        1           0.004706950   -0.002681038    0.008118649
     11        1           0.002115889   -0.000209777    0.001812306
     12        1          -0.016480060   -0.005142469    0.030453308
     13        6          -0.010574573    0.025921368    0.027397262
     14        6           0.005340604   -0.037196893   -0.024900421
     15        6           0.006128332    0.001535431    0.012661646
     16        6           0.025600912   -0.008192966   -0.010429843
     17        6          -0.013409414    0.011808312    0.001519785
     18        7          -0.013187498    0.000096800   -0.003475359
     19        6           0.001178378   -0.026226591   -0.011934594
     20        6           0.012443063    0.043448742    0.028224529
     21        1          -0.000931892   -0.002517856    0.000413025
     22        1           0.000753876   -0.001429624   -0.007496838
     23        1          -0.003956009    0.002094205   -0.006133917
     24        1          -0.005249647   -0.003752158    0.002655064
     25        1           0.002324186   -0.002024960   -0.000354935
     26        1          -0.001306759    0.003235853    0.000643182
     27        1          -0.006601533   -0.004308817   -0.010912069
 -------------------------------------------------------------------
 Cartesian Forces:  Max     0.084721072 RMS     0.022353531

 GradGradGradGradGradGradGradGradGradGradGradGradGradGradGradGradGradGrad
 Berny optimization.
 FormGI is forming the generalized inverse of G from B-inverse, IUseBI=4.
 Internal  Forces:  Max     0.074360142 RMS     0.013099111
 Search for a local minimum.
 Step number   1 out of a maximum of  129
 All quantities printed in internal units (Hartrees-Bohrs-Radians)
 Mixed Optimization -- RFO/linear search
 Second derivative matrix not updated -- first step.
 ITU=  0
     Eigenvalues ---    0.00230   0.00867   0.01440   0.01445   0.01755
     Eigenvalues ---    0.01856   0.01879   0.01972   0.01989   0.02022
     Eigenvalues ---    0.02074   0.02128   0.02183   0.02219   0.02244
     Eigenvalues ---    0.02269   0.02346   0.02526   0.02528   0.03671
     Eigenvalues ---    0.03752   0.03775   0.04222   0.06627   0.07476
     Eigenvalues ---    0.11526   0.15733   0.15788   0.15960   0.15993
     Eigenvalues ---    0.15998   0.16000   0.16000   0.16000   0.16000
     Eigenvalues ---    0.16000   0.16000   0.16000   0.16000   0.20536
     Eigenvalues ---    0.21987   0.22000   0.23296   0.24731   0.24973
     Eigenvalues ---    0.24983   0.25000   0.25000   0.25000   0.33194
     Eigenvalues ---    0.34753   0.34794   0.34848   0.35918   0.35927
     Eigenvalues ---    0.35965   0.36001   0.36003   0.36005   0.36045
     Eigenvalues ---    0.36072   0.36108   0.38368   0.38416   0.40250
     Eigenvalues ---    0.44457   0.44875   0.48494   0.49553   0.51562
     Eigenvalues ---    0.52938   0.53899   0.58815   0.72956   0.76725
 RFO step:  Lambda=-4.75917644D-02 EMin= 2.30000000D-03
 Linear search not attempted -- first point.
 Maximum step size (   0.300) exceeded in Quadratic search.
    -- Step size scaled by   0.993
 Iteration  1 RMS(Cart)=  0.17142167 RMS(Int)=  0.00598100
 Iteration  2 RMS(Cart)=  0.02050913 RMS(Int)=  0.00142929
 Iteration  3 RMS(Cart)=  0.00015167 RMS(Int)=  0.00142807
 Iteration  4 RMS(Cart)=  0.00000008 RMS(Int)=  0.00142807
 Variable       Old X    -DE/DX   Delta X   Delta X   Delta X     New X
                                 (Linear)    (Quad)   (Total)
    R1        2.82012   0.02005   0.00000   0.05244   0.05244   2.87257
    R2        2.06078   0.00265   0.00000   0.00666   0.00666   2.06744
    R3        2.06010   0.00257   0.00000   0.00644   0.00644   2.06654
    R4        2.05923   0.00102   0.00000   0.00255   0.00255   2.06178
    R5        2.41953   0.07436   0.00000   0.09501   0.09501   2.51454
    R6        2.73764   0.02666   0.00000   0.06131   0.06131   2.79895
    R7        2.03969   0.00385   0.00000   0.00937   0.00937   2.04906
    R8        2.04211   0.00144   0.00000   0.00352   0.00352   2.04563
    R9        2.39732  -0.07217   0.00000  -0.08794  -0.08794   2.30937
   R10        2.60319  -0.03169   0.00000  -0.05794  -0.05794   2.54525
   R11        1.78590   0.03254   0.00000   0.05082   0.05082   1.83673
   R12        3.80214  -0.00160   0.00000  -0.01766  -0.01766   3.78449
   R13        2.58321  -0.03114   0.00000  -0.05491  -0.05491   2.52831
   R14        2.04012   0.00155   0.00000   0.00377   0.00377   2.04389
   R15        2.04137   0.00199   0.00000   0.00486   0.00486   2.04623
   R16        2.73833   0.01775   0.00000   0.04086   0.04086   2.77918
   R17        2.04196   0.00286   0.00000   0.00699   0.00699   2.04895
   R18        2.63208   0.00615   0.00000   0.01455   0.01463   2.64671
   R19        2.59631   0.02107   0.00000   0.04034   0.04036   2.63667
   R20        2.64471  -0.01060   0.00000  -0.02084  -0.02089   2.62382
   R21        2.04079   0.00303   0.00000   0.00738   0.00738   2.04817
   R22        2.55408  -0.00705   0.00000  -0.01394  -0.01400   2.54008
   R23        2.04073   0.00284   0.00000   0.00691   0.00691   2.04764
   R24        2.55383  -0.00912   0.00000  -0.01742  -0.01740   2.53643
   R25        2.67863  -0.01948   0.00000  -0.04090  -0.04090   2.63773
   R26        2.03913   0.00328   0.00000   0.00796   0.00796   2.04710
   R27        2.04077   0.00369   0.00000   0.00898   0.00898   2.04975
    A1        1.92533   0.00423   0.00000   0.02602   0.02605   1.95138
    A2        1.91821   0.00256   0.00000   0.00956   0.00913   1.92734
    A3        2.02541  -0.00922   0.00000  -0.04737  -0.04743   1.97798
    A4        1.84210  -0.00081   0.00000   0.00305   0.00272   1.84482
    A5        1.83490   0.00375   0.00000   0.02220   0.02254   1.85744
    A6        1.90776   0.00021   0.00000  -0.00868  -0.00913   1.89863
    A7        2.07647   0.01570   0.00000   0.05265   0.05261   2.12908
    A8        2.06183  -0.00122   0.00000  -0.00390  -0.00395   2.05787
    A9        2.14382  -0.01442   0.00000  -0.04793  -0.04800   2.09582
   A10        2.05781   0.00735   0.00000   0.03756   0.03637   2.09418
   A11        2.12869  -0.00087   0.00000  -0.00177  -0.00296   2.12573
   A12        2.08536  -0.00537   0.00000  -0.02325  -0.02444   2.06093
   A13        2.04331   0.02498   0.00000   0.09688   0.08888   2.13219
   A14        2.16381  -0.02543   0.00000  -0.07163  -0.07964   2.08417
   A15        2.04972   0.00351   0.00000   0.02511   0.01709   2.06681
   A16        2.04680  -0.01611   0.00000  -0.07705  -0.07705   1.96975
   A17        2.81515   0.00137   0.00000   0.00457   0.00457   2.81972
   A18        2.13888  -0.00282   0.00000  -0.01332  -0.01349   2.12539
   A19        2.05092   0.00729   0.00000   0.03503   0.03486   2.08578
   A20        2.09311  -0.00441   0.00000  -0.02095  -0.02113   2.07198
   A21        2.08269   0.01457   0.00000   0.05402   0.05401   2.13670
   A22        2.15990  -0.01141   0.00000  -0.04682  -0.04683   2.11307
   A23        2.04040  -0.00317   0.00000  -0.00738  -0.00740   2.03300
   A24        2.18232  -0.00579   0.00000  -0.02410  -0.02410   2.15822
   A25        2.09969   0.00198   0.00000   0.00184   0.00184   2.10152
   A26        2.00117   0.00381   0.00000   0.02227   0.02225   2.02342
   A27        2.12025  -0.00847   0.00000  -0.02429  -0.02507   2.09517
   A28        2.12358   0.00058   0.00000  -0.00165  -0.00242   2.12116
   A29        2.02328   0.00870   0.00000   0.03773   0.03718   2.06046
[...]
 **** Fit      -0.025537
 **** Fit      -0.028192
 **** Fit      -0.031041
 **** Fit      -0.033905
 **** Fit      -0.036490
 **** Fit      -0.038433
 **** Fit      -0.039400
 **** Fit      -0.039192
 **** Fit      -0.037798
 **** Fit      -0.035381
 **** Fit      -0.029999
 **** Fit      -0.033495
 **** Fit      -0.037252
 **** Fit      -0.041007
 **** Fit      -0.044332
 **** Fit      -0.046699
 **** Fit      -0.047632
 **** Fit      -0.046892
 **** Fit      -0.044566
 **** Fit      -0.041005
 **** Fit      -0.036678
 **** Fit      -0.013202
 **** Fit      -0.010885
 **** Fit      -0.034907
 **** Fit      -0.039447
 **** Fit      -0.044379
 **** Fit      -0.049350
 **** Fit      -0.053749
 **** Fit      -0.056787
 **** Fit      -0.057743
 **** Fit      -0.056289
 **** Fit      -0.052658
 **** Fit      -0.047514
 **** Fit      -0.041642
 **** Fit      -0.035692
 **** Fit      -0.030086
 **** Fit      -0.020673
 **** Fit      -0.016960
 **** Fit      -0.013877
 **** Fit      -0.011368
 **** Fit      -0.009364
 **** Fit      -0.035061
 **** Fit      -0.040051
 **** Fit      -0.045792
 **** Fit      -0.052130
 **** Fit      -0.058616
 **** Fit      -0.064425
 **** Fit      -0.068427
 **** Fit      -0.069543
 **** Fit      -0.067270
 **** Fit      -0.062012
 **** Fit      -0.054868
 **** Fit      -0.047075
 **** Fit      -0.039548
 **** Fit      -0.032774
 **** Fit      -0.021979
 **** Fit      -0.017881
 **** Fit      -0.014533
 **** Fit      -0.011845
 **** Fit      -0.009725
 **** Fit      -0.008081
 **** Fit      -0.039124
 **** Fit      -0.045118
 **** Fit      -0.052100
 **** Fit      -0.059893
 **** Fit      -0.067938
 **** Fit      -0.075187
 **** Fit      -0.078620
 **** Fit      -0.071742
 **** Fit      -0.062493
 **** Fit      -0.052635
 **** Fit      -0.043423
 **** Fit      -0.035428
 **** Fit      -0.028745
 **** Fit      -0.023259
 **** Fit      -0.018800
 **** Fit      -0.015212
 **** Fit      -0.012363
 **** Fit      -0.010138
 **** Fit      -0.008426
 **** Fit      -0.037060
 **** Fit      -0.042827
 **** Fit      -0.049733
 **** Fit      -0.057812
 **** Fit      -0.066801
 **** Fit      -0.075937
 **** Fit      -0.069129
 **** Fit      -0.057586
 **** Fit      -0.046917
 **** Fit      -0.037847
 **** Fit      -0.030442
 **** Fit      -0.024488
 **** Fit      -0.019726
 **** Fit      -0.015939
 **** Fit      -0.012955
 **** Fit      -0.010636
 **** Fit      -0.008856
 **** Fit      -0.039561
 **** Fit      -0.045909
 **** Fit      -0.053523
 **** Fit      -0.062391
 **** Fit      -0.072065
 **** Fit      -0.061051
 **** Fit      -0.049534
 **** Fit      -0.039770
 **** Fit      -0.031877
 **** Fit      -0.025604
 **** Fit      -0.020635
 **** Fit      -0.016709
 **** Fit      -0.013624
 **** Fit      -0.011225
 **** Fit      -0.009377
 **** Fit      -0.041428
 **** Fit      -0.048149
 **** Fit      -0.056194
 **** Fit      -0.065482
 **** Fit      -0.075362
 **** Fit      -0.062535
 **** Fit      -0.050926
 **** Fit      -0.040978
 **** Fit      -0.032922
 **** Fit      -0.026528
 **** Fit      -0.021474
 **** Fit      -0.017482
 **** Fit      -0.014339
 **** Fit      -0.011880
 **** Fit      -0.042547
 **** Fit      -0.049395
 **** Fit      -0.057554
 **** Fit      -0.066905
 **** Fit      -0.076721
 **** Fit      -0.062173
 **** Fit      -0.051044
 **** Fit      -0.041388
 **** Fit      -0.033496
 **** Fit      -0.027191
 **** Fit      -0.042869
 **** Fit      -0.049584
 **** Fit      -0.057521
 **** Fit      -0.066565
 **** Fit      -0.076069
 **** Fit      -0.060401
 **** Fit      -0.050071
 **** Fit      -0.041049
 **** Fit      -0.033587
 **** Fit      -0.042420
 **** Fit      -0.048757
 **** Fit      -0.056152
 **** Fit      -0.064494
 **** Fit      -0.073269
 **** Fit      -0.081348
 **** Fit      -0.067362
 **** Fit      -0.057566
 **** Fit      -0.048254
 **** Fit      -0.040085
 **** Fit      -0.033232
 **** Fit      -0.047062
 **** Fit      -0.053667
 **** Fit      -0.060983
 **** Fit      -0.068589
 **** Fit      -0.075630
 **** Fit      -0.080886
 **** Fit      -0.083202
 **** Fit      -0.077656
 **** Fit      -0.070811
 **** Fit      -0.062553
 **** Fit      -0.053952
 **** Fit      -0.045834
 **** Fit      -0.038640
 **** Fit      -0.032495
 **** Fit      -0.044724
 **** Fit      -0.050412
 **** Fit      -0.056549
 **** Fit      -0.062774
 **** Fit      -0.068434
 **** Fit      -0.072631
 **** Fit      -0.074476
 **** Fit      -0.073474
 **** Fit      -0.069755
 **** Fit      -0.063987
 **** Fit      -0.057083
 **** Fit      -0.049897
 **** Fit      -0.043043
 **** Fit      -0.036854
 **** Fit      -0.046753
 **** Fit      -0.051740
 **** Fit      -0.056637
 **** Fit      -0.060953
 **** Fit      -0.064060
 **** Fit      -0.065355
 **** Fit      -0.064495
 **** Fit      -0.061562
 **** Fit      -0.057025
 **** Fit      -0.051542
 **** Fit      -0.045742
 **** Fit      -0.040086
 **** Fit      -0.046970
 **** Fit      -0.050746
 **** Fit      -0.053961
 **** Fit      -0.056189
 **** Fit      -0.057046
 **** Fit      -0.056321
 **** Fit      -0.054070
 **** Fit      -0.050596
 **** Fit      -0.046336
 **** Fit      -0.041728
 **** Fit      -0.047764
 **** Fit      -0.049357
 **** Fit      -0.049915
 **** Fit      -0.049313
 **** Fit      -0.047588
 **** Fit      -0.044934
 **** Fit      -0.041632
 **** Fit      -0.019826
 **** Fit      -0.020890
 **** Fit      -0.021744
 **** Fit      -0.021936
 **** Fit      -0.023405
 **** Fit      -0.024721
 **** Fit      -0.025740
 **** Fit      -0.025829
 **** Fit      -0.027684
 **** Fit      -0.029309
 **** Fit      -0.030511
 **** Fit      -0.031115
 **** Fit      -0.030398
 **** Fit      -0.032758
 **** Fit      -0.034783
 **** Fit      -0.036211
 **** Fit      -0.036810
 **** Fit      -0.036451
 **** Fit      -0.035647
 **** Fit      -0.038673
 **** Fit      -0.041241
 **** Fit      -0.042980
 **** Fit      -0.043568
 **** Fit      -0.042850
 **** Fit      -0.040890
 **** Fit      -0.037942
 **** Fit      -0.037469
 **** Fit      -0.041481
 **** Fit      -0.045362
 **** Fit      -0.048662
 **** Fit      -0.050846
 **** Fit      -0.051454
 **** Fit      -0.050277
 **** Fit      -0.047462
 **** Fit      -0.043438
 **** Fit      -0.038744
 **** Fit      -0.033865
 **** Fit      -0.037932
 **** Fit      -0.042655
 **** Fit      -0.047652
 **** Fit      -0.052552
 **** Fit      -0.056761
 **** Fit      -0.059542
 **** Fit      -0.060231
 **** Fit      -0.058533
 **** Fit      -0.054690
 **** Fit      -0.049372
 **** Fit      -0.043375
 **** Fit      -0.037359
 **** Fit      -0.031739
 **** Fit      -0.042109
 **** Fit      -0.047720
 **** Fit      -0.053726
 **** Fit      -0.059679
 **** Fit      -0.064843
 **** Fit      -0.068275
 **** Fit      -0.069097
 **** Fit      -0.066896
 **** Fit      -0.061992
 **** Fit      -0.055311
 **** Fit      -0.047945
 **** Fit      -0.040752
 **** Fit      -0.034220
 **** Fit      -0.040186
 **** Fit      -0.045866
 **** Fit      -0.052261
 **** Fit      -0.059131
 **** Fit      -0.065944
 **** Fit      -0.071837
 **** Fit      -0.075737
 **** Fit      -0.076649
 **** Fit      -0.074068
 **** Fit      -0.068320
 **** Fit      -0.060499
 **** Fit      -0.051953
 **** Fit      -0.043737
 **** Fit      -0.036413
 **** Fit      -0.030156
 **** Fit      -0.042728
 **** Fit      -0.048919
 **** Fit      -0.055885
 **** Fit      -0.063324
 **** Fit      -0.070595
 **** Fit      -0.076735
 **** Fit      -0.078702
 **** Fit      -0.072547
 **** Fit      -0.064105
 **** Fit      -0.054844
 **** Fit      -0.045967
 **** Fit      -0.038115
 **** Fit      -0.031471
 **** Fit      -0.044551
 **** Fit      -0.051038
 **** Fit      -0.058299
 **** Fit      -0.065959
 **** Fit      -0.073270
 **** Fit      -0.079193
 **** Fit      -0.074150
 **** Fit      -0.065655
 **** Fit      -0.056253
 **** Fit      -0.047191
 **** Fit      -0.039165
 **** Fit      -0.032379
 **** Fit      -0.045543
 **** Fit      -0.052083
 **** Fit      -0.059347
 **** Fit      -0.066919
 **** Fit      -0.073995
 **** Fit      -0.079511
 **** Fit      -0.073441
 **** Fit      -0.065239
 **** Fit      -0.056154
 **** Fit      -0.047349
 **** Fit      -0.039498
 **** Fit      -0.032823
 **** Fit      -0.045662
 **** Fit      -0.052009
 **** Fit      -0.058992
 **** Fit      -0.066197
 **** Fit      -0.072853
 **** Fit      -0.077936
 **** Fit      -0.076917
 **** Fit      -0.071001
 **** Fit      -0.063255
 **** Fit      -0.054777
 **** Fit      -0.046547
 **** Fit      -0.039153
 **** Fit      -0.032802
 **** Fit      -0.044949
 **** Fit      -0.050880
 **** Fit      -0.057321
 **** Fit      -0.063891
 **** Fit      -0.069905
 **** Fit      -0.074454
 **** Fit      -0.076687
 **** Fit      -0.076131
 **** Fit      -0.072812
 **** Fit      -0.067198
 **** Fit      -0.060091
 **** Fit      -0.052426
 **** Fit      -0.044983
 **** Fit      -0.038231
 **** Fit      -0.032358
 **** Fit      -0.048866
 **** Fit      -0.054570
 **** Fit      -0.060288
 **** Fit      -0.065447
 **** Fit      -0.069294
 **** Fit      -0.071103
 **** Fit      -0.070450
 **** Fit      -0.067374
 **** Fit      -0.062347
 **** Fit      -0.056102
 **** Fit      -0.049406
 **** Fit      -0.042869
 **** Fit      -0.036865
 **** Fit      -0.046215
 **** Fit      -0.051086
 **** Fit      -0.055858
 **** Fit      -0.060068
 **** Fit      -0.063130
 **** Fit      -0.064492
 **** Fit      -0.063826
 **** Fit      -0.061174
 **** Fit      -0.056926
 **** Fit      -0.051670
 **** Fit      -0.046007
 **** Fit      -0.040410
 **** Fit      -0.047237
 **** Fit      -0.051098
 **** Fit      -0.054409
 **** Fit      -0.056743
 **** Fit      -0.057708
 **** Fit      -0.057080
 **** Fit      -0.054898
 **** Fit      -0.051447
 **** Fit      -0.047161
 **** Fit      -0.042484
 **** Fit      -0.037782
 **** Fit      -0.046390
 **** Fit      -0.048943
 **** Fit      -0.050681
 **** Fit      -0.051340
 **** Fit      -0.050776
 **** Fit      -0.049022
 **** Fit      -0.046274
 **** Fit      -0.042834
 **** Fit      -0.045646
 **** Fit      -0.045154
 **** Fit      -0.043752
 **** Fit      -0.037777
 **** Fit      -0.039028
 **** Fit      -0.039378
 **** Fit      -0.038728
 **** Fit      -0.037124
 **** Fit      -0.038167
 **** Fit      -0.041127
 **** Fit      -0.043547
 **** Fit      -0.045077
 **** Fit      -0.045430
 **** Fit      -0.044482
 **** Fit      -0.042323
 **** Fit      -0.039224
 **** Fit      -0.039174
 **** Fit      -0.043023
 **** Fit      -0.046640
 **** Fit      -0.049616
 **** Fit      -0.051487
 **** Fit      -0.051866
 **** Fit      -0.050588
 **** Fit      -0.047794
 **** Fit      -0.043879
 **** Fit      -0.039339
 **** Fit      -0.038792
 **** Fit      -0.043194
 **** Fit      -0.047709
 **** Fit      -0.051988
 **** Fit      -0.055533
 **** Fit      -0.057765
 **** Fit      -0.058184
 **** Fit      -0.056577
 **** Fit      -0.053135
 **** Fit      -0.048383
 **** Fit      -0.042975
 **** Fit      -0.037475
 **** Fit      -0.041818
 **** Fit      -0.046757
 **** Fit      -0.051843
 **** Fit      -0.056679
 **** Fit      -0.060690
 **** Fit      -0.063206
 **** Fit      -0.063644
 **** Fit      -0.061751
 **** Fit      -0.057749
 **** Fit      -0.052275
 **** Fit      -0.046114
 **** Fit      -0.039935
 **** Fit      -0.034171
 **** Fit      -0.044256
 **** Fit      -0.049583
 **** Fit      -0.055060
 **** Fit      -0.060240
 **** Fit      -0.064497
 **** Fit      -0.067120
 **** Fit      -0.067507
 **** Fit      -0.065394
 **** Fit      -0.061020
 **** Fit      -0.055070
 **** Fit      -0.048409
 **** Fit      -0.041774
 **** Fit      -0.035634
 **** Fit      -0.045937
 **** Fit      -0.051461
 **** Fit      -0.057099
 **** Fit      -0.062367
 **** Fit      -0.066612
 **** Fit      -0.069133
 **** Fit      -0.069372
 **** Fit      -0.067104
 **** Fit      -0.062572
 **** Fit      -0.056456
 **** Fit      -0.049622
 **** Fit      -0.042823
 **** Fit      -0.036540
 **** Fit      -0.046760
 **** Fit      -0.052271
 **** Fit      -0.057840
 **** Fit      -0.062964
 **** Fit      -0.066991
 **** Fit      -0.069260
 **** Fit      -0.069285
 **** Fit      -0.066913
 **** Fit      -0.062402
 **** Fit      -0.056394
 **** Fit      -0.049698
 **** Fit      -0.043026
 **** Fit      -0.036841
 **** Fit      -0.046700
 **** Fit      -0.051998
 **** Fit      -0.057289
 **** Fit      -0.062082
 **** Fit      -0.065757
 **** Fit      -0.067706
 **** Fit      -0.067518
 **** Fit      -0.065106
 **** Fit      -0.060758
 **** Fit      -0.055067
 **** Fit      -0.048753
 **** Fit      -0.042444
 **** Fit      -0.036561
 **** Fit      -0.045810
 **** Fit      -0.050723
 **** Fit      -0.055560
 **** Fit      -0.059873
 **** Fit      -0.063102
 **** Fit      -0.064713
 **** Fit      -0.064361
 **** Fit      -0.062012
 **** Fit      -0.057963
 **** Fit      -0.052751
 **** Fit      -0.046990
 **** Fit      -0.041211
 **** Fit      -0.035776
 **** Fit      -0.044217
 **** Fit      -0.048618
 **** Fit      -0.052879
 **** Fit      -0.056608
 **** Fit      -0.059331
 **** Fit      -0.060605
 **** Fit      -0.060158
 **** Fit      -0.057985
 **** Fit      -0.054360
 **** Fit      -0.049743
 **** Fit      -0.044641
 **** Fit      -0.039489
 **** Fit      -0.045921
 **** Fit      -0.049552
 **** Fit      -0.052660
 **** Fit      -0.054868
 **** Fit      -0.055831
 **** Fit      -0.055347
 **** Fit      -0.053428
 **** Fit      -0.050301
 **** Fit      -0.046334
 **** Fit      -0.041931
 **** Fit      -0.045896
 **** Fit      -0.048415
 **** Fit      -0.050150
 **** Fit      -0.050851
 **** Fit      -0.050373
 **** Fit      -0.048734
 **** Fit      -0.046111
 **** Fit      -0.042781
 **** Fit      -0.045519
 **** Fit      -0.046013
 **** Fit      -0.045566
 **** Fit      -0.044196
 **** Fit      -0.039891
 **** Fit      -0.040074
 **** Fit      -0.039305
 **** Fit      -0.041303
 **** Fit      -0.043403
 **** Fit      -0.044657
 **** Fit      -0.044838
 **** Fit      -0.043855
 **** Fit      -0.041793
 **** Fit      -0.038886
 **** Fit      -0.042263
 **** Fit      -0.045330
 **** Fit      -0.047762
 **** Fit      -0.049207
 **** Fit      -0.049387
 **** Fit      -0.048191
 **** Fit      -0.045732
 **** Fit      -0.042311
 **** Fit      -0.038317
 **** Fit      -0.041683
 **** Fit      -0.045424
 **** Fit      -0.048833
 **** Fit      -0.051535
 **** Fit      -0.053130
 **** Fit      -0.053296
 **** Fit      -0.051907
 **** Fit      -0.049101
 **** Fit      -0.045235
 **** Fit      -0.040768
 **** Fit      -0.036126
 **** Fit      -0.043890
 **** Fit      -0.047884
 **** Fit      -0.051513
 **** Fit      -0.054371
 **** Fit      -0.056030
 **** Fit      -0.056151
 **** Fit      -0.054606
 **** Fit      -0.051548
 **** Fit      -0.047372
 **** Fit      -0.042579
 **** Fit      -0.037630
 **** Fit      -0.045361
 **** Fit      -0.049461
 **** Fit      -0.053157
 **** Fit      -0.056030
 **** Fit      -0.057649
 **** Fit      -0.057687
 **** Fit      -0.056028
 **** Fit      -0.052840
 **** Fit      -0.048525
 **** Fit      -0.043595
 **** Fit      -0.038520
 **** Fit      -0.046012
 **** Fit      -0.050065
 **** Fit      -0.053676
 **** Fit      -0.056431
 **** Fit      -0.057920
 **** Fit      -0.057845
 **** Fit      -0.056121
 **** Fit      -0.052923
 **** Fit      -0.048642
 **** Fit      -0.043768
 **** Fit      -0.038753
 **** Fit      -0.045834
 **** Fit      -0.049700
 **** Fit      -0.053095
 **** Fit      -0.055630
 **** Fit      -0.056931
 **** Fit      -0.056740
 **** Fit      -0.055006
 **** Fit      -0.051906
 **** Fit      -0.047807
 **** Fit      -0.043155
 **** Fit      -0.038360
 **** Fit      -0.044887
 **** Fit      -0.048451
 **** Fit      -0.051533
 **** Fit      -0.053779
 **** Fit      -0.054866
 **** Fit      -0.054580
 **** Fit      -0.052897
 **** Fit      -0.049990
 **** Fit      -0.046189
 **** Fit      -0.041881
 **** Fit      -0.046478
 **** Fit      -0.049182
 **** Fit      -0.051105
 **** Fit      -0.051977
 **** Fit      -0.051629
 **** Fit      -0.050055
 **** Fit      -0.047414
 **** Fit      -0.043989
 **** Fit      -0.040107
 **** Fit      -0.046287
 **** Fit      -0.047883
 **** Fit      -0.048555
 **** Fit      -0.048179
 **** Fit      -0.046757
 **** Fit      -0.044425
 **** Fit      -0.041416
 **** Fit      -0.044888
 **** Fit      -0.044510
 **** Fit      -0.043259
 **** Fit      -0.041405
 **** Fit      -0.042353
 **** Fit      -0.042399
 **** Fit      -0.041485
 **** Fit      -0.039680
 **** Fit      -0.042366
 **** Fit      -0.044212
 **** Fit      -0.045237
 **** Fit      -0.045260
 **** Fit      -0.044218
 **** Fit      -0.042194
 **** Fit      -0.039397
 **** Fit      -0.041837
 **** Fit      -0.044402
 **** Fit      -0.046340
 **** Fit      -0.047397
 **** Fit      -0.047382
 **** Fit      -0.046234
 **** Fit      -0.044048
 **** Fit      -0.041051
 **** Fit      -0.043073
 **** Fit      -0.045682
 **** Fit      -0.047632
 **** Fit      -0.048667
 **** Fit      -0.048599
 **** Fit      -0.047375
 **** Fit      -0.045096
 **** Fit      -0.041999
 **** Fit      -0.043581
 **** Fit      -0.046139
 **** Fit      -0.048023
 **** Fit      -0.048985
 **** Fit      -0.048854
 **** Fit      -0.047586
 **** Fit      -0.045290
 **** Fit      -0.042198
 **** Fit      -0.043360
 **** Fit      -0.045783
 **** Fit      -0.047536
 **** Fit      -0.048389
 **** Fit      -0.048194
 **** Fit      -0.046920
 **** Fit      -0.044678
 **** Fit      -0.041687
 **** Fit      -0.044694
 **** Fit      -0.046269
 **** Fit      -0.046994
 **** Fit      -0.046744
 **** Fit      -0.045504
 **** Fit      -0.043377
 **** Fit      -0.040566
 **** Fit      -0.044372
 **** Fit      -0.044965
 **** Fit      -0.044678
 **** Fit      -0.043505
 -----------------------------------------------------------------
 Leave Link  602 at Thu Apr 21 15:18:28 2022, MaxMem=   104857600 cpu:               2.8 elap:               2.9
 (Enter /opt/ohpc/pub/libs/gaussian/g16-A.03/haswell/g16/l9999.exe)

 Test job not archived.
 1\1\GINC-CASCADEB017\SP\RB3LYP\6-311++G(d,p)\C11H13N1O2\MNG228\21-Apr-
 2022\0\\#P B3LYP/6-311++G(d,p) Geom=Allcheck SCF=Tight EmpiricalDisper
 sion=GD3BJ Pop=CHELPG SP IOp(6/33=2)\\MAA1-VP1 geo opt\\0,1\C,0,26.105
 764696,12.3182312729,13.7753538531\C,0,27.2255078211,11.9301301194,12.
 8463933173\C,0,28.1787994533,11.0523937392,13.1575470251\C,0,27.279528
 8338,12.6244557372,11.5047239445\O,0,28.227286063,13.2790572489,11.146
 7819873\O,0,26.1889976243,12.4914599183,10.7363140907\H,0,25.126061042
 8,12.1142419451,13.337315794\H,0,26.1468557822,13.3915596992,13.987060
 4942\H,0,26.1832205057,11.7782862671,14.7209302688\H,0,28.1831722916,1
 0.5436554184,14.1160360026\H,0,28.9874728471,10.8339532853,12.47045198
 63\H,0,25.5752581858,11.7778294133,11.0645935789\C,0,21.9919679854,5.9
 767383295,12.3416657429\C,0,21.7654250141,7.1585582382,11.7636222703\C
 ,0,22.716102233,8.2727096532,11.6543227423\C,0,24.0228201995,8.2329389
 846,12.1628169018\C,0,24.8483178663,9.3350134002,12.0116911311\N,0,24.
 4625267983,10.4628082767,11.3964051137\C,0,23.2204353437,10.5102481843
 ,10.9049015994\C,0,22.3249094748,9.4536907124,11.0113847676\H,0,21.221
 6802719,5.2162620809,12.3703082795\H,0,22.9395215788,5.7219676583,12.8
 021353861\H,0,20.7906770895,7.3441681253,11.320766121\H,0,24.400798425
 3,7.3554065945,12.6707742239\H,0,25.8624683433,9.3304533649,12.3963918
 323\H,0,22.9364321665,11.4312378318,10.4063876457\H,0,21.328992063,9.5
 475445007,10.5949238997\\Version=ES64L-G16RevA.03\State=1-A\HF=-632.40
 33116\RMSD=5.827e-09\Dipole=-2.3578358,-2.4838148,1.0690809\Quadrupole
 =0.2327302,-1.0318036,0.7990734,-8.198556,7.8535822,3.6614314\PG=C01 [
 X(C11H13N1O2)]\\@


 REALITY IS FOR PEOPLE WHO CAN'T FACE SCIENCE FICTION.
 Job cpu time:       0 days  0 hours  7 minutes 42.3 seconds.
 Elapsed time:       0 days  0 hours  7 minutes 43.9 seconds.
 File lengths (MBytes):  RWF=    320 Int=      0 D2E=      0 Chk=     32 Scr=     32
 Normal termination of Gaussian 16 at Thu Apr 21 15:18:28 2022.
