 Entering Gaussian System, Link 0=g16
 Initial command:
 /opt/ohpc/pub/libs/gaussian/g16-A.03/haswell/g16/l1.exe "g16_scratch/Gau-223186.inp" -scrdir="g16_scratch/"
 Entering Link 1 = /opt/ohpc/pub/libs/gaussian/g16-A.03/haswell/g16/l1.exe PID=    223187.
  
 Copyright (c) 1988,1990,1992,1993,1995,1998,2003,2009,2016,
            Gaussian, Inc.  All Rights Reserved.
  
 This is part of the Gaussian(R) 16 program.  It is based on
 the Gaussian(R) 09 system (copyright 2009, Gaussian, Inc.),
 the Gaussian(R) 03 system (copyright 2003, Gaussian, Inc.),
 the Gaussian(R) 98 system (copyright 1998, Gaussian, Inc.),
 the Gaussian(R) 94 system (copyright 1995, Gaussian, Inc.),
 the Gaussian 92(TM) system (copyright 1992, Gaussian, Inc.),
 the Gaussian 90(TM) system (copyright 1990, Gaussian, Inc.),
 the Gaussian 88(TM) system (copyright 1988, Gaussian, Inc.),
 the Gaussian 86(TM) system (copyright 1986, Carnegie Mellon
 University), and the Gaussian 82(TM) system (copyright 1983,
 Carnegie Mellon University). Gaussian is a federally registered
 trademark of Gaussian, Inc.
  
 This software contains proprietary and confidential information,
 including trade secrets, belonging to Gaussian, Inc.
  
 This software is provided under written license and may be
 used, copied, transmitted, or stored only in accord with that
 written license.
  
 The following legend is applicable only to US Government
 contracts under FAR:
  
                    RESTRICTED RIGHTS LEGEND
  
 Use, reproduction and disclosure by the US Government is
 subject to restrictions as set forth in subparagraphs (a)
 and (c) of the Commercial Computer Software - Restricted
 Rights clause in FAR 52.227-19.
  
 Gaussian, Inc.
 340 Quinnipiac St., Bldg. 40, Wallingford CT 06492
  
  
 ---------------------------------------------------------------
 Warning -- This program may not be used in any manner that
 competes with the business of Gaussian, Inc. or will provide
 assistance to any competitor of Gaussian, Inc.  The licensee
 of this program is prohibited from giving any competitor of
 Gaussian, Inc. access to this program.  By using this program,
 the user acknowledges that Gaussian, Inc. is engaged in the
 business of creating and licensing software in the field of
 computational chemistry and represents and warrants to the
 licensee that it is not a competitor of Gaussian, Inc. and that
 it will not use this program in any manner prohibited above.
 ---------------------------------------------------------------
  

 Cite this work as:
 Gaussian 16, Revision A.03,
 M. J. Frisch, G. W. Trucks, H. B. Schlegel, G. E. Scuseria, 
 M. A. Robb, J. R. Cheeseman, G. Scalmani, V. Barone, 
 G. A. Petersson, H. Nakatsuji, X. Li, M. Caricato, A. V. Marenich, 
 J. Bloino, B. G. Janesko, R. Gomperts, B. Mennucci, H. P. Hratchian, 
 J. V. Ortiz, A. F. Izmaylov, J. L. Sonnenberg, D. Williams-Young, 
 F. Ding, F. Lipparini, F. Egidi, J. Goings, B. Peng, A. Petrone, 
 T. Henderson, D. Ranasinghe, V. G. Zakrzewski, J. Gao, N. Rega, 
 G. Zheng, W. Liang, M. Hada, M. Ehara, K. Toyota, R. Fukuda, 
 J. Hasegawa, M. Ishida, T. Nakajima, Y. Honda, O. Kitao, H. Nakai, 
 T. Vreven, K. Throssell, J. A. Montgomery, Jr., J. E. Peralta, 
 F. Ogliaro, M. J. Bearpark, J. J. Heyd, E. N. Brothers, K. N. Kudin, 
 V. N. Staroverov, T. A. Keith, R. Kobayashi, J. Normand, 
 K. Raghavachari, A. P. Rendell, J. C. Burant, S. S. Iyengar, 
 J. Tomasi, M. Cossi, J. M. Millam, M. Klene, C. Adamo, R. Cammi, 
 J. W. Ochterski, R. L. Martin, K. Morokuma, O. Farkas, 
 J. B. Foresman, and D. J. Fox, Gaussian, Inc., Wallingford CT, 2016.
 
 ******************************************
 Gaussian 16:  ES64L-G16RevA.03 25-Dec-2016
                21-Apr-2022 
 ******************************************
 %Mem=192GB
 %NProcShared=48
 Will use up to   48 processors via shared memory.
 %Chk=MAA1-VP1-4.chk
 ---------------------------------------------------------------------
 #n B3LYP/6-311++G(d,p) Opt freq EmpiricalDispersion=GD3BJ IOp(6/33=2)
 ---------------------------------------------------------------------
 1/18=20,19=15,26=3,38=1/1,3;
 2/9=110,12=2,17=6,18=5,40=1/2;
 3/5=4,6=6,7=1111,11=2,25=1,30=1,71=1,74=-5,124=41/1,2,3;
 4//1;
 5/5=2,38=5/2;
 6/7=2,8=2,9=2,10=2,28=1,33=2/1;
 7//1,2,3,16;
 1/18=20,19=15,26=3/3(2);
 2/9=110/2;
 99//99;
 2/9=110/2;
 3/5=4,6=6,7=1111,11=2,25=1,30=1,71=1,74=-5,124=41/1,2,3;
 4/5=5,16=3,69=1/1;
 5/5=2,38=5/2;
 7//1,2,3,16;
 1/18=20,19=15,26=3/3(-5);
 2/9=110/2;
 6/7=2,8=2,9=2,10=2,19=2,28=1,33=2/1;
 99/9=1/99;
 ----------------
 MAA1-VP1 geo opt
 ----------------
 Symbolic Z-matrix:
 Charge =  0 Multiplicity = 1
 C                     15.676    13.057    11.862 
 C                     16.71     12.305    12.736 
 C                     16.315    11.959    13.978 
 C                     18.005    12.031    12.282 
 O                     18.796    11.321    12.874 
 O                     18.379    12.77     11.163 
 H                     15.833    14.121    11.68 
 H                     14.76     13.103    12.45 
 H                     15.493    12.45     10.976 
 H                     15.337    12.077    14.421 
 H                     17.09     11.52     14.588 
 H                     17.607    13.287    10.99 
 C                     17.185    5.873     7.29 
 C                     17.822    6.712     8.143 
 C                     17.075    7.249     9.275 
 C                     15.713    7.186     9.577 
 C                     15.179    7.843     10.735 
 N                     15.924    8.523     11.625 
 C                     17.244    8.639     11.321 
 C                     17.797    8.051     10.174 
 H                     17.67     5.663     6.348 
 H                     16.165    5.56      7.459 
 H                     18.83     7.037     7.937 
 H                     15.079    6.518     9.013 
 H                     14.132    7.743     10.981 
 H                     17.901    9.142     12.015 
 H                     18.854    8.257     10.094 
 
 Add virtual bond connecting atoms H26        and O5         Dist= 4.74D+00.

 GradGradGradGradGradGradGradGradGradGradGradGradGradGradGradGradGradGrad
 Berny optimization.
 Initialization pass.
                           ----------------------------
                           !    Initial Parameters    !
                           ! (Angstroms and Degrees)  !
 --------------------------                            --------------------------
 ! Name  Definition              Value          Derivative Info.                !
 --------------------------------------------------------------------------------
 ! R1    R(1,2)                  1.5487         estimate D2E/DX2                !
 ! R2    R(1,7)                  1.0908         estimate D2E/DX2                !
 ! R3    R(1,8)                  1.0895         estimate D2E/DX2                !
 ! R4    R(1,9)                  1.0895         estimate D2E/DX2                !
 ! R5    R(2,3)                  1.3484         estimate D2E/DX2                !
 ! R6    R(2,4)                  1.3994         estimate D2E/DX2                !
 ! R7    R(3,10)                 1.0801         estimate D2E/DX2                !
 ! R8    R(3,11)                 1.0796         estimate D2E/DX2                !
 ! R9    R(4,5)                  1.2167         estimate D2E/DX2                !
 ! R10   R(4,6)                  1.3922         estimate D2E/DX2                !
 ! R11   R(5,26)                 2.5074         estimate D2E/DX2                !
 ! R12   R(6,12)                 0.9451         estimate D2E/DX2                !
 ! R13   R(13,14)                1.3555         estimate D2E/DX2                !
 ! R14   R(13,21)                1.0801         estimate D2E/DX2                !
 ! R15   R(13,22)                1.0802         estimate D2E/DX2                !
 ! R16   R(14,15)                1.4587         estimate D2E/DX2                !
 ! R17   R(14,23)                1.0789         estimate D2E/DX2                !
 ! R18   R(15,16)                1.3965         estimate D2E/DX2                !
 ! R19   R(15,20)                1.4045         estimate D2E/DX2                !
 ! R20   R(16,17)                1.4345         estimate D2E/DX2                !
 ! R21   R(16,24)                1.0799         estimate D2E/DX2                !
 ! R22   R(17,18)                1.3452         estimate D2E/DX2                !
 ! R23   R(17,25)                1.0802         estimate D2E/DX2                !
 ! R24   R(18,19)                1.3595         estimate D2E/DX2                !
 ! R25   R(19,20)                1.4026         estimate D2E/DX2                !
 ! R26   R(19,26)                1.08           estimate D2E/DX2                !
 ! R27   R(20,27)                1.0799         estimate D2E/DX2                !
 ! A1    A(2,1,7)              118.1442         estimate D2E/DX2                !
 ! A2    A(2,1,8)              106.0972         estimate D2E/DX2                !
 ! A3    A(2,1,9)              107.491          estimate D2E/DX2                !
 ! A4    A(7,1,8)               99.7808         estimate D2E/DX2                !
 ! A5    A(7,1,9)              115.5912         estimate D2E/DX2                !
 ! A6    A(8,1,9)              108.7366         estimate D2E/DX2                !
 ! A7    A(1,2,3)              116.6671         estimate D2E/DX2                !
 ! A8    A(1,2,4)              121.9947         estimate D2E/DX2                !
 ! A9    A(3,2,4)              121.3098         estimate D2E/DX2                !
 ! A10   A(2,3,10)             127.9495         estimate D2E/DX2                !
 ! A11   A(2,3,11)             114.4874         estimate D2E/DX2                !
 ! A12   A(10,3,11)            117.5609         estimate D2E/DX2                !
 ! A13   A(2,4,5)              123.9216         estimate D2E/DX2                !
 ! A14   A(2,4,6)              113.9189         estimate D2E/DX2                !
 ! A15   A(5,4,6)              121.7502         estimate D2E/DX2                !
 ! A16   A(4,5,26)              96.2218         estimate D2E/DX2                !
 ! A17   A(4,6,12)             102.5957         estimate D2E/DX2                !
 ! A18   A(14,13,21)           117.2677         estimate D2E/DX2                !
 ! A19   A(14,13,22)           121.6436         estimate D2E/DX2                !
 ! A20   A(21,13,22)           120.2705         estimate D2E/DX2                !
 ! A21   A(13,14,15)           118.3962         estimate D2E/DX2                !
 ! A22   A(13,14,23)           120.3541         estimate D2E/DX2                !
 ! A23   A(15,14,23)           121.0445         estimate D2E/DX2                !
 ! A24   A(14,15,16)           130.5915         estimate D2E/DX2                !
 ! A25   A(14,15,20)           116.3391         estimate D2E/DX2                !
 ! A26   A(16,15,20)           112.8732         estimate D2E/DX2                !
 ! A27   A(15,16,17)           121.1293         estimate D2E/DX2                !
 ! A28   A(15,16,24)           119.1784         estimate D2E/DX2                !
 ! A29   A(17,16,24)           119.1007         estimate D2E/DX2                !
 ! A30   A(16,17,18)           124.0178         estimate D2E/DX2                !
 ! A31   A(16,17,25)           120.1509         estimate D2E/DX2                !
 ! A32   A(18,17,25)           115.6548         estimate D2E/DX2                !
 ! A33   A(17,18,19)           115.6529         estimate D2E/DX2                !
 ! A34   A(18,19,20)           121.9998         estimate D2E/DX2                !
 ! A35   A(18,19,26)           119.1255         estimate D2E/DX2                !
 ! A36   A(20,19,26)           118.7462         estimate D2E/DX2                !
 ! A37   A(15,20,19)           124.0665         estimate D2E/DX2                !
 ! A38   A(15,20,27)           124.3804         estimate D2E/DX2                !
 ! A39   A(19,20,27)           111.5027         estimate D2E/DX2                !
 ! A40   A(5,26,19)            147.3594         estimate D2E/DX2                !
 ! D1    D(7,1,2,3)            107.3079         estimate D2E/DX2                !
 ! D2    D(7,1,2,4)            -70.7737         estimate D2E/DX2                !
 ! D3    D(8,1,2,3)             -3.4792         estimate D2E/DX2                !
 ! D4    D(8,1,2,4)            178.4392         estimate D2E/DX2                !
 ! D5    D(9,1,2,3)           -119.6771         estimate D2E/DX2                !
 ! D6    D(9,1,2,4)             62.2413         estimate D2E/DX2                !
 ! D7    D(1,2,3,10)             4.884          estimate D2E/DX2                !
 ! D8    D(1,2,3,11)          -174.5678         estimate D2E/DX2                !
 ! D9    D(4,2,3,10)          -177.0203         estimate D2E/DX2                !
 ! D10   D(4,2,3,11)             3.5279         estimate D2E/DX2                !
 ! D11   D(1,2,4,5)           -171.6763         estimate D2E/DX2                !
 ! D12   D(1,2,4,6)             15.5711         estimate D2E/DX2                !
 ! D13   D(3,2,4,5)             10.3302         estimate D2E/DX2                !
 ! D14   D(3,2,4,6)           -162.4224         estimate D2E/DX2                !
 ! D15   D(2,4,5,26)            82.372          estimate D2E/DX2                !
 ! D16   D(6,4,5,26)          -105.4221         estimate D2E/DX2                !
 ! D17   D(2,4,6,12)            -0.6139         estimate D2E/DX2                !
 ! D18   D(5,4,6,12)          -173.5425         estimate D2E/DX2                !
 ! D19   D(4,5,26,19)           10.2292         estimate D2E/DX2                !
 ! D20   D(21,13,14,15)        166.5329         estimate D2E/DX2                !
 ! D21   D(21,13,14,23)         -8.316          estimate D2E/DX2                !
 ! D22   D(22,13,14,15)         -3.1303         estimate D2E/DX2                !
 ! D23   D(22,13,14,23)       -177.9792         estimate D2E/DX2                !
 ! D24   D(13,14,15,16)         -9.094          estimate D2E/DX2                !
 ! D25   D(13,14,15,20)        176.4224         estimate D2E/DX2                !
 ! D26   D(23,14,15,16)        165.7178         estimate D2E/DX2                !
 ! D27   D(23,14,15,20)         -8.7658         estimate D2E/DX2                !
 ! D28   D(14,15,16,17)       -177.3455         estimate D2E/DX2                !
 ! D29   D(14,15,16,24)         11.5538         estimate D2E/DX2                !
 ! D30   D(20,15,16,17)         -2.7107         estimate D2E/DX2                !
 ! D31   D(20,15,16,24)       -173.8113         estimate D2E/DX2                !
 ! D32   D(14,15,20,19)       -179.4268         estimate D2E/DX2                !
 ! D33   D(14,15,20,27)         -2.2304         estimate D2E/DX2                !
 ! D34   D(16,15,20,19)          5.1174         estimate D2E/DX2                !
 ! D35   D(16,15,20,27)       -177.6862         estimate D2E/DX2                !
 ! D36   D(15,16,17,18)         -1.9687         estimate D2E/DX2                !
 ! D37   D(15,16,17,25)       -176.9265         estimate D2E/DX2                !
 ! D38   D(24,16,17,18)        169.1388         estimate D2E/DX2                !
 ! D39   D(24,16,17,25)         -5.819          estimate D2E/DX2                !
 ! D40   D(16,17,18,19)          4.2955         estimate D2E/DX2                !
 ! D41   D(25,17,18,19)        179.4592         estimate D2E/DX2                !
 ! D42   D(17,18,19,20)         -1.8978         estimate D2E/DX2                !
 ! D43   D(17,18,19,26)       -177.7242         estimate D2E/DX2                !
 ! D44   D(18,19,20,15)         -3.0125         estimate D2E/DX2                !
 ! D45   D(18,19,20,27)        179.4742         estimate D2E/DX2                !
 ! D46   D(26,19,20,15)        172.8292         estimate D2E/DX2                !
 ! D47   D(26,19,20,27)         -4.6842         estimate D2E/DX2                !
 ! D48   D(18,19,26,5)         -81.9796         estimate D2E/DX2                !
 ! D49   D(20,19,26,5)         102.0572         estimate D2E/DX2                !
 --------------------------------------------------------------------------------
 Trust Radius=3.00D-01 FncErr=1.00D-07 GrdErr=1.00D-06 EigMax=2.50D+02 EigMin=1.00D-04
 Number of steps in this run=    126 maximum allowed number of steps=    162.
 GradGradGradGradGradGradGradGradGradGradGradGradGradGradGradGradGradGrad

                          Input orientation:                          
 ---------------------------------------------------------------------
 Center     Atomic      Atomic             Coordinates (Angstroms)
 Number     Number       Type             X           Y           Z
 ---------------------------------------------------------------------
      1          6           0       15.676000   13.057000   11.862000
      2          6           0       16.710000   12.305000   12.736000
      3          6           0       16.315000   11.959000   13.978000
      4          6           0       18.005000   12.031000   12.282000
      5          8           0       18.796000   11.321000   12.874000
      6          8           0       18.379000   12.770000   11.163000
      7          1           0       15.833000   14.121000   11.680000
      8          1           0       14.760000   13.103000   12.450000
      9          1           0       15.493000   12.450000   10.976000
     10          1           0       15.337000   12.077000   14.421000
     11          1           0       17.090000   11.520000   14.588000
     12          1           0       17.607000   13.287000   10.990000
     13          6           0       17.185000    5.873000    7.290000
     14          6           0       17.822000    6.712000    8.143000
     15          6           0       17.075000    7.249000    9.275000
     16          6           0       15.713000    7.186000    9.577000
     17          6           0       15.179000    7.843000   10.735000
     18          7           0       15.924000    8.523000   11.625000
     19          6           0       17.244000    8.639000   11.321000
     20          6           0       17.797000    8.051000   10.174000
     21          1           0       17.670000    5.663000    6.348000
     22          1           0       16.165000    5.560000    7.459000
     23          1           0       18.830000    7.037000    7.937000
     24          1           0       15.079000    6.518000    9.013000
     25          1           0       14.132000    7.743000   10.981000
     26          1           0       17.901000    9.142000   12.015000
     27          1           0       18.854000    8.257000   10.094000
 ---------------------------------------------------------------------
                    Distance matrix (angstroms):
                    1          2          3          4          5
     1  C    0.000000
     2  C    1.548721   0.000000
     3  C    2.468072   1.348445   0.000000
     4  C    2.579402   1.399363   2.395350   0.000000
     5  O    3.711097   2.310562   2.789484   1.216653   0.000000
     6  O    2.806631   2.340110   3.583579   1.392177   2.280573
     7  H    1.090811   2.276427   3.191766   3.073774   4.247941
     8  H    1.089457   2.126288   2.462021   3.421613   4.432222
     9  H    1.089465   2.144694   3.150995   2.862052   3.973267
    10  H    2.761123   2.185483   1.080119   3.419892   3.863862
    11  H    3.434071   2.047078   1.079558   2.532979   2.426486
    12  H    2.131207   2.194869   3.515820   1.845319   2.971251
    13  C    8.648128   8.441277   9.084362   7.969531   7.965995
    14  C    7.661286   7.322147   7.990575   6.742149   6.676370
    15  C    6.510195   6.137987   6.699247   5.724899   5.700511
    16  C    6.300098   6.097331   6.520179   6.003692   6.121546
    17  C    5.357512   5.124198   5.361809   5.283827   5.454768
    18  N    4.546958   4.019408   4.182773   4.131377   4.199665
    19  C    4.719113   3.965720   4.352596   3.606703   3.466069
    20  C    5.692804   5.083496   5.651478   4.508584   4.356708
    21  H    9.436709   9.265220   9.984615   8.710683   8.710311
    22  H    8.708073   8.581304   9.136031   8.277727   8.332677
    23  H    7.848168   7.434825   8.188101   6.670808   6.536649
    24  H    7.157634   7.071793   7.468829   7.045637   7.196681
    25  H    5.603454   5.526116   5.614459   5.922810   6.175632
    26  H    4.505692   3.455849   3.782097   2.903175   2.507379
    27  H    6.022085   5.288025   5.936058   4.444235   4.137615
                    6          7          8          9         10
     6  O    0.000000
     7  H    2.928243   0.000000
     8  H    3.855440   1.667499   0.000000
     9  H    2.909702   1.844846   1.770981   0.000000
    10  H    4.510940   3.455001   2.295745   3.468644   0.000000
    11  H    3.867124   4.098989   3.536359   4.057321   1.846929
    12  H    0.945094   2.078156   3.204819   2.273711   4.288212
    13  C    7.999648   9.440843   9.207558   7.726991   9.630985
    14  C    6.791908   8.447471   8.292827   6.809903   8.623905
    15  C    5.978829   7.385863   7.050473   5.696185   7.267155
    16  C    6.387801   7.247843   6.646294   5.451174   6.894026
    17  C    5.890544   6.382321   5.548368   4.623973   5.615899
    18  N    4.927218   5.599010   4.797074   4.003535   4.559945
    19  C    4.286998   5.672048   5.231844   4.208176   5.006645
    20  C    4.856522   6.555168   6.318722   5.030191   6.348014
    21  H    8.613731  10.165754  10.052667   8.498299  10.571453
    22  H    8.402709   9.550800   9.153194   7.764855   9.572164
    23  H    6.593767   8.554245   8.586526   7.047812   8.924399
    24  H    7.389182   8.092405   7.434847   6.262059   7.759865
    25  H    6.583378   6.637837   5.593026   4.899816   5.662966
    26  H    3.757229   5.401786   5.073916   4.221475   4.580083
    27  H    4.662141   6.784418   6.767222   5.445686   6.759040
                   11         12         13         14         15
    11  H    0.000000
    12  H    4.041681   0.000000
    13  C    9.228133   8.296715   0.000000
    14  C    8.074077   7.168142   1.355470   0.000000
    15  C    6.816864   6.299341   2.417788   1.458699   0.000000
    16  C    6.766817   6.542630   3.020120   2.594015   1.396502
    17  C    5.658433   5.966351   4.446680   3.870798   2.465614
    18  N    4.372749   5.092289   5.234964   4.359639   2.910391
    19  C    4.358574   4.673889   4.889090   3.761263   2.479269
    20  C    5.658375   5.302608   3.665472   2.432798   1.404524
    21  H   10.126127   8.926226   1.080134   2.084593   3.381826
    22  H    9.338087   8.617068   1.080245   2.130870   2.641719
    23  H    8.207356   7.062509   2.116490   1.078946   2.217028
    24  H    7.755305   7.491240   2.796425   2.884196   2.141733
    25  H    6.002161   6.543061   5.142100   4.767946   3.437400
    26  H    3.596239   4.279963   5.790047   4.572037   3.431228
    27  H    5.827083   5.259156   4.041217   2.694151   2.202650
                   16         17         18         19         20
    16  C    0.000000
    17  C    1.434493   0.000000
    18  N    2.454871   1.345186   0.000000
    19  C    2.738011   2.289375   1.359512   0.000000
    20  C    2.334029   2.685500   2.415846   1.402556   0.000000
    21  H    4.071341   5.495748   6.250988   5.811091   4.511868
    22  H    2.708155   4.112963   5.117910   5.055643   4.029855
    23  H    3.525265   4.669929   4.924873   4.066111   2.664480
    24  H    1.079943   2.175065   3.399499   3.809558   3.329495
    25  H    2.186556   1.080150   2.057766   3.256219   3.765413
    26  H    3.815380   3.276444   2.108030   1.079951   2.142517
    27  H    3.358603   3.753385   3.316567   2.059989   1.079854
                   21         22         23         24         25
    21  H    0.000000
    22  H    1.873487   0.000000
    23  H    2.399666   3.084192   0.000000
    24  H    3.813991   2.124165   3.936640   0.000000
    25  H    6.189389   4.615524   5.642302   2.504088   0.000000
    26  H    6.653698   6.049922   4.682323   4.884779   4.151110
    27  H    4.707782   4.631172   2.478230   4.294567   4.832003
                   26         27
    26  H    0.000000
    27  H    2.319844   0.000000
 Stoichiometry    C11H13NO2
 Framework group  C1[X(C11H13NO2)]
 Deg. of freedom    75
 Full point group                 C1      NOp   1
 Largest Abelian subgroup         C1      NOp   1
 Largest concise Abelian subgroup C1      NOp   1
                         Standard orientation:                         
 ---------------------------------------------------------------------
 Center     Atomic      Atomic             Coordinates (Angstroms)
 Number     Number       Type             X           Y           Z
 ---------------------------------------------------------------------
      1          6           0       -3.283251    0.762721    1.666986
      2          6           0       -3.190565    0.313360    0.187791
      3          6           0       -3.598903    1.201364   -0.741195
      4          6           0       -2.745451   -0.963395   -0.172745
      5          8           0       -2.520212   -1.305530   -1.318370
      6          8           0       -2.729702   -1.873916    0.880280
      7          1           0       -4.060214    0.319864    2.291547
      8          1           0       -3.627866    1.796058    1.647748
      9          1           0       -2.275679    0.737482    2.080624
     10          1           0       -3.918686    2.221824   -0.589347
     11          1           0       -3.606428    0.820616   -1.751353
     12          1           0       -3.034389   -1.353076    1.607667
     13          6           0        5.178554   -0.693585    0.633961
     14          6           0        3.985475   -1.141998    0.172673
     15          6           0        2.923197   -0.170423   -0.062720
     16          6           0        2.843619    1.185468    0.262000
     17          6           0        1.661593    1.947553   -0.020505
     18          7           0        0.575205    1.450047   -0.638384
     19          6           0        0.613532    0.119728   -0.915971
     20          6           0        1.731977   -0.670702   -0.613542
     21          1           0        5.871609   -1.430715    1.012120
     22          1           0        5.370149    0.359441    0.780099
     23          1           0        3.805349   -2.200362    0.065225
     24          1           0        3.731920    1.699315    0.598390
     25          1           0        1.635004    3.006281    0.191893
     26          1           0       -0.213413   -0.330993   -1.444467
     27          1           0        1.576859   -1.701041   -0.897135
 ---------------------------------------------------------------------
 Rotational constants (GHZ):           1.2547803           0.2792309           0.2589314
 Standard basis: 6-311++G(d,p) (5D, 7F)
 There are   413 symmetry adapted cartesian basis functions of A   symmetry.
 There are   399 symmetry adapted basis functions of A   symmetry.
   399 basis functions,   621 primitive gaussians,   413 cartesian basis functions
    51 alpha electrons       51 beta electrons
       nuclear repulsion energy       795.2675166988 Hartrees.
 NAtoms=   27 NActive=   27 NUniq=   27 SFac= 1.00D+00 NAtFMM=   60 NAOKFM=F Big=F
 Integral buffers will be    131072 words long.
 Raffenetti 2 integral format.
 Two-electron integral symmetry is turned on.
 Nuclear repulsion after empirical dispersion term =      795.2220897231 Hartrees.
 One-electron integrals computed using PRISM.
 NBasis=   399 RedAO= T EigKep=  2.15D-06  NBF=   399
 NBsUse=   399 1.00D-06 EigRej= -1.00D+00 NBFU=   399
 ExpMin= 3.60D-02 ExpMax= 8.59D+03 ExpMxC= 1.30D+03 IAcc=3 IRadAn=         5 AccDes= 0.00D+00
 Harris functional with IExCor=  402 and IRadAn=       5 diagonalized for initial guess.
 HarFok:  IExCor=  402 AccDes= 0.00D+00 IRadAn=         5 IDoV= 1 UseB2=F ITyADJ=14
 ICtDFT=  3500011 ScaDFX=  1.000000  1.000000  1.000000  1.000000
 FoFCou: FMM=F IPFlag=           0 FMFlag=      100000 FMFlg1=           0
         NFxFlg=           0 DoJE=T BraDBF=F KetDBF=T FulRan=T
         wScrn=  0.000000 ICntrl=       500 IOpCl=  0 I1Cent=   200000004 NGrid=           0
         NMat0=    1 NMatS0=      1 NMatT0=    0 NMatD0=    1 NMtDS0=    0 NMtDT0=    0
 Petite list used in FoFCou.
 Requested convergence on RMS density matrix=1.00D-08 within 128 cycles.
 Requested convergence on MAX density matrix=1.00D-06.
 Requested convergence on             energy=1.00D-06.
 No special actions if energy rises.
 SCF Done:  E(RB3LYP) =  -632.357109895     A.U. after   16 cycles
            NFock= 16  Conv=0.26D-08     -V/T= 2.0042
 SCF density gives NOpUse=  1 NOpAll=  1.

 **********************************************************************

            Population analysis using the SCF density.

 **********************************************************************

 Orbital symmetries:
 BldTbl:  Degeneracy threshold= 1.00D-02
       Occupied  (A) (A) (A) (A) (A) (A) (A) (A) (A) (A) (A) (A)
                 (A) (A) (A) (A) (A) (A) (A) (A) (A) (A) (A) (A)
                 (A) (A) (A) (A) (A) (A) (A) (A) (A) (A) (A) (A)
                 (A) (A) (A) (A) (A) (A) (A) (A) (A) (A) (A) (A)
                 (A) (A) (A)
       Virtual   (A) (A) (A) (A) (A) (A) (A) (A) (A) (A) (A) (A)
                 (A) (A) (A) (A) (A) (A) (A) (A) (A) (A) (A) (A)
                 (A) (A) (A) (A) (A) (A) (A) (A) (A) (A) (A) (A)
                 (A) (A) (A) (A) (A) (A) (A) (A) (A) (A) (A) (A)
                 (A) (A) (A) (A) (A) (A) (A) (A) (A) (A) (A) (A)
                 (A) (A) (A) (A) (A) (A) (A) (A) (A) (A) (A) (A)
                 (A) (A) (A) (A) (A) (A) (A) (A) (A) (A) (A) (A)
                 (A) (A) (A) (A) (A) (A) (A) (A) (A) (A) (A) (A)
                 (A) (A) (A) (A) (A) (A) (A) (A) (A) (A) (A) (A)
                 (A) (A) (A) (A) (A) (A) (A) (A) (A) (A) (A) (A)
                 (A) (A) (A) (A) (A) (A) (A) (A) (A) (A) (A) (A)
                 (A) (A) (A) (A) (A) (A) (A) (A) (A) (A) (A) (A)
                 (A) (A) (A) (A) (A) (A) (A) (A) (A) (A) (A) (A)
                 (A) (A) (A) (A) (A) (A) (A) (A) (A) (A) (A) (A)
                 (A) (A) (A) (A) (A) (A) (A) (A) (A) (A) (A) (A)
                 (A) (A) (A) (A) (A) (A) (A) (A) (A) (A) (A) (A)
                 (A) (A) (A) (A) (A) (A) (A) (A) (A) (A) (A) (A)
                 (A) (A) (A) (A) (A) (A) (A) (A) (A) (A) (A) (A)
                 (A) (A) (A) (A) (A) (A) (A) (A) (A) (A) (A) (A)
                 (A) (A) (A) (A) (A) (A) (A) (A) (A) (A) (A) (A)
                 (A) (A) (A) (A) (A) (A) (A) (A) (A) (A) (A) (A)
                 (A) (A) (A) (A) (A) (A) (A) (A) (A) (A) (A) (A)
                 (A) (A) (A) (A) (A) (A) (A) (A) (A) (A) (A) (A)
                 (A) (A) (A) (A) (A) (A) (A) (A) (A) (A) (A) (A)
                 (A) (A) (A) (A) (A) (A) (A) (A) (A) (A) (A) (A)
                 (A) (A) (A) (A) (A) (A) (A) (A) (A) (A) (A) (A)
                 (A) (A) (A) (A) (A) (A) (A) (A) (A) (A) (A) (A)
                 (A) (A) (A) (A) (A) (A) (A) (A) (A) (A) (A) (A)
                 (A) (A) (A) (A) (A) (A) (A) (A) (A) (A) (A) (A)
 The electronic state is 1-A.
 Alpha  occ. eigenvalues --  -19.17199 -19.11422 -14.31424 -10.30818 -10.21571
 Alpha  occ. eigenvalues --  -10.20922 -10.20677 -10.20499 -10.19998 -10.19700
 Alpha  occ. eigenvalues --  -10.19672 -10.19192 -10.18591 -10.18092  -1.10663
 Alpha  occ. eigenvalues --   -1.03011  -0.93837  -0.84085  -0.83520  -0.76477
 Alpha  occ. eigenvalues --   -0.75843  -0.71893  -0.67040  -0.65215  -0.63146
 Alpha  occ. eigenvalues --   -0.59846  -0.57971  -0.52685  -0.51614  -0.48957
 Alpha  occ. eigenvalues --   -0.48747  -0.47724  -0.47182  -0.45882  -0.45307
 Alpha  occ. eigenvalues --   -0.43661  -0.42270  -0.41805  -0.41444  -0.40366
 Alpha  occ. eigenvalues --   -0.40241  -0.38507  -0.37653  -0.36292  -0.33473
 Alpha  occ. eigenvalues --   -0.33314  -0.29123  -0.28630  -0.26366  -0.26251
 Alpha  occ. eigenvalues --   -0.25475
 Alpha virt. eigenvalues --   -0.07759  -0.06809  -0.02815  -0.01714  -0.00466
 Alpha virt. eigenvalues --    0.00385   0.00892   0.01478   0.01539   0.02097
 Alpha virt. eigenvalues --    0.03122   0.03415   0.03773   0.04455   0.05014
 Alpha virt. eigenvalues --    0.05099   0.05582   0.06043   0.06594   0.07049
 Alpha virt. eigenvalues --    0.07683   0.08184   0.08306   0.09174   0.09729
 Alpha virt. eigenvalues --    0.09888   0.10249   0.10490   0.10916   0.11066
 Alpha virt. eigenvalues --    0.11267   0.11499   0.11963   0.12371   0.12724
 Alpha virt. eigenvalues --    0.13083   0.13244   0.13460   0.13772   0.13938
 Alpha virt. eigenvalues --    0.14230   0.14684   0.15005   0.15426   0.15958
 Alpha virt. eigenvalues --    0.16214   0.16324   0.16627   0.17228   0.17654
 Alpha virt. eigenvalues --    0.18069   0.18446   0.19079   0.19241   0.19469
 Alpha virt. eigenvalues --    0.19977   0.20451   0.20767   0.21234   0.21997
 Alpha virt. eigenvalues --    0.22299   0.22439   0.23177   0.23838   0.24342
 Alpha virt. eigenvalues --    0.24781   0.25184   0.25466   0.26077   0.26373
 Alpha virt. eigenvalues --    0.26961   0.27339   0.28021   0.28497   0.29030
 Alpha virt. eigenvalues --    0.29616   0.29728   0.30288   0.31182   0.31622
 Alpha virt. eigenvalues --    0.32028   0.32793   0.33209   0.33242   0.34331
 Alpha virt. eigenvalues --    0.34667   0.34982   0.35405   0.36774   0.37402
 Alpha virt. eigenvalues --    0.38281   0.38633   0.39378   0.40106   0.41790
 Alpha virt. eigenvalues --    0.42405   0.43254   0.44788   0.46121   0.47534
 Alpha virt. eigenvalues --    0.49520   0.50807   0.52249   0.52501   0.52701
 Alpha virt. eigenvalues --    0.53992   0.54235   0.54727   0.56474   0.56845
 Alpha virt. eigenvalues --    0.57152   0.57847   0.58488   0.59681   0.60062
 Alpha virt. eigenvalues --    0.60625   0.61263   0.61528   0.62906   0.63656
 Alpha virt. eigenvalues --    0.64930   0.65291   0.66401   0.66890   0.68263
 Alpha virt. eigenvalues --    0.68765   0.70253   0.70603   0.71155   0.72390
 Alpha virt. eigenvalues --    0.72568   0.73847   0.74416   0.75246   0.75930
 Alpha virt. eigenvalues --    0.76844   0.77237   0.78000   0.78612   0.80317
 Alpha virt. eigenvalues --    0.82487   0.84951   0.85368   0.85916   0.86332
 Alpha virt. eigenvalues --    0.87829   0.89021   0.89309   0.90011   0.91566
 Alpha virt. eigenvalues --    0.92493   0.92693   0.93277   0.93942   0.95456
 Alpha virt. eigenvalues --    0.96360   0.98016   0.99696   1.02364   1.03119
 Alpha virt. eigenvalues --    1.04405   1.05870   1.05946   1.08357   1.08788
 Alpha virt. eigenvalues --    1.10425   1.10946   1.11965   1.13249   1.14773
 Alpha virt. eigenvalues --    1.15561   1.16836   1.18714   1.22153   1.23203
 Alpha virt. eigenvalues --    1.24677   1.25850   1.30222   1.30637   1.34817
 Alpha virt. eigenvalues --    1.36816   1.38302   1.41122   1.41756   1.43782
 Alpha virt. eigenvalues --    1.44010   1.46013   1.46829   1.47492   1.47969
 Alpha virt. eigenvalues --    1.49615   1.50166   1.54356   1.56452   1.56857
 Alpha virt. eigenvalues --    1.57774   1.58438   1.58651   1.59095   1.60638
 Alpha virt. eigenvalues --    1.61054   1.63237   1.63926   1.65414   1.67280
 Alpha virt. eigenvalues --    1.68163   1.69630   1.72039   1.72528   1.73770
 Alpha virt. eigenvalues --    1.75292   1.75990   1.78243   1.79035   1.79791
 Alpha virt. eigenvalues --    1.80923   1.82674   1.83090   1.85135   1.87475
 Alpha virt. eigenvalues --    1.88856   1.89259   1.91023   1.92017   1.94005
 Alpha virt. eigenvalues --    1.94175   1.96451   2.01099   2.01519   2.01874
 Alpha virt. eigenvalues --    2.03437   2.03951   2.06911   2.08773   2.09078
 Alpha virt. eigenvalues --    2.09897   2.12783   2.15377   2.17451   2.20346
 Alpha virt. eigenvalues --    2.21110   2.24273   2.24830   2.25208   2.28142
 Alpha virt. eigenvalues --    2.30030   2.33778   2.34452   2.38744   2.42580
 Alpha virt. eigenvalues --    2.43537   2.47284   2.48381   2.49687   2.50471
 Alpha virt. eigenvalues --    2.52356   2.53550   2.55196   2.56263   2.57768
 Alpha virt. eigenvalues --    2.59961   2.60464   2.63098   2.63880   2.67219
 Alpha virt. eigenvalues --    2.67397   2.69466   2.70258   2.71118   2.72203
 Alpha virt. eigenvalues --    2.73914   2.74858   2.75653   2.76792   2.77974
 Alpha virt. eigenvalues --    2.78971   2.79647   2.80541   2.82711   2.83632
 Alpha virt. eigenvalues --    2.87187   2.87971   2.89089   2.91128   2.92903
 Alpha virt. eigenvalues --    2.95380   2.95862   2.96974   2.97581   2.97791
 Alpha virt. eigenvalues --    2.98989   2.99782   3.03550   3.11025   3.13774
 Alpha virt. eigenvalues --    3.16750   3.20254   3.21732   3.25715   3.29512
 Alpha virt. eigenvalues --    3.34333   3.37863   3.43583   3.44536   3.44853
 Alpha virt. eigenvalues --    3.51887   3.57360   3.59419   3.64724   3.67621
 Alpha virt. eigenvalues --    3.69282   3.73887   3.75254   3.77007   3.80298
 Alpha virt. eigenvalues --    3.86371   3.88485   3.94976   4.00980   4.05202
 Alpha virt. eigenvalues --    4.06525   4.10325   4.23449   4.32051   4.38685
 Alpha virt. eigenvalues --    4.40571   4.53975   5.00195   5.09840   5.17627
 Alpha virt. eigenvalues --    5.19719   5.46286   5.61722   5.88126  23.67031
 Alpha virt. eigenvalues --   23.68972  23.83948  23.91576  23.92070  23.95795
 Alpha virt. eigenvalues --   23.97233  24.04809  24.10229  24.16857  24.19959
 Alpha virt. eigenvalues --   35.62465  49.89789  50.03029
          Condensed to atoms (all electrons):
               1          2          3          4          5          6
     1  C    6.785478  -0.000194  -0.634221  -0.583245   0.018644   0.110475
     2  C   -0.000194   8.184387  -1.666058  -1.434114  -0.251699  -0.215584
     3  C   -0.634221  -1.666058   8.064926   0.024420   0.116459  -0.031849
     4  C   -0.583245  -1.434114   0.024420   8.219250   0.428088   0.216773
     5  O    0.018644  -0.251699   0.116459   0.428088   8.055164  -0.130601
     6  O    0.110475  -0.215584  -0.031849   0.216773  -0.130601   7.925308
     7  H    0.359095   0.024441  -0.062012   0.033121  -0.002707  -0.005926
     8  H    0.348381  -0.091652   0.084660  -0.003714   0.000282  -0.005709
     9  H    0.404575  -0.029789  -0.007942  -0.023566  -0.000546   0.004221
    10  H   -0.026917  -0.073525   0.407369   0.045259   0.002108  -0.000589
    11  H    0.044705   0.046499   0.274677  -0.042260   0.002480   0.012137
    12  H   -0.130792   0.148895   0.056885  -0.092523   0.015803   0.220928
    13  C   -0.000624  -0.000187  -0.001111   0.003896   0.000052  -0.000355
    14  C    0.008357   0.010996  -0.012392  -0.010458   0.002888  -0.000891
    15  C    0.007157  -0.017250  -0.014065   0.052426  -0.004764  -0.007105
    16  C   -0.044913   0.044828   0.051454  -0.077516  -0.000147   0.001072
    17  C    0.025879  -0.042100  -0.047064   0.079201   0.002122  -0.002933
    18  N   -0.000040   0.046376  -0.006820  -0.048514   0.009779  -0.001881
    19  C    0.052038  -0.091711   0.136128  -0.073231  -0.100540   0.050894
    20  C   -0.040061   0.212917  -0.131576  -0.093911   0.074806  -0.029317
    21  H   -0.000010  -0.000084  -0.000023   0.000178  -0.000002  -0.000001
    22  H    0.000094  -0.000070  -0.000073   0.000121  -0.000002  -0.000008
    23  H    0.000101   0.000920   0.000361  -0.002009   0.000062   0.000112
    24  H   -0.001263   0.001067   0.000747  -0.001161   0.000055   0.000020
    25  H    0.002280  -0.004646  -0.003844   0.007900  -0.000176  -0.000094
    26  H    0.015824   0.013117   0.019006  -0.054690   0.020259  -0.003413
    27  H   -0.002048  -0.007191   0.000525   0.007682  -0.002169   0.000583
               7          8          9         10         11         12
     1  C    0.359095   0.348381   0.404575  -0.026917   0.044705  -0.130792
     2  C    0.024441  -0.091652  -0.029789  -0.073525   0.046499   0.148895
     3  C   -0.062012   0.084660  -0.007942   0.407369   0.274677   0.056885
     4  C    0.033121  -0.003714  -0.023566   0.045259  -0.042260  -0.092523
     5  O   -0.002707   0.000282  -0.000546   0.002108   0.002480   0.015803
     6  O   -0.005926  -0.005709   0.004221  -0.000589   0.012137   0.220928
     7  H    0.600657  -0.046684  -0.057865   0.001617  -0.001132   0.010198
     8  H   -0.046684   0.552097  -0.010939  -0.000267  -0.000027   0.003411
     9  H   -0.057865  -0.010939   0.552732   0.002773  -0.001485  -0.015024
    10  H    0.001617  -0.000267   0.002773   0.524116  -0.022045  -0.001395
    11  H   -0.001132  -0.000027  -0.001485  -0.022045   0.499578  -0.001124
    12  H    0.010198   0.003411  -0.015024  -0.001395  -0.001124   0.528783
    13  C    0.000019   0.000003   0.000416  -0.000075   0.000012   0.000011
    14  C   -0.000122   0.000206   0.001578  -0.000555   0.001033   0.000503
    15  C   -0.000710   0.000637   0.007591  -0.002221  -0.000138  -0.002838
    16  C   -0.000120  -0.001193   0.002731   0.002116  -0.005144   0.002093
    17  C   -0.000214   0.001260  -0.004372  -0.001663   0.005293  -0.000772
    18  N   -0.000920  -0.000071   0.006837  -0.001839   0.000945   0.000963
    19  C   -0.000706  -0.002836  -0.015324   0.011684  -0.008660  -0.022273
    20  C    0.002347   0.000378   0.007145  -0.008865   0.010089   0.021978
    21  H    0.000000  -0.000000  -0.000005  -0.000000  -0.000000   0.000002
    22  H   -0.000000   0.000004  -0.000001  -0.000008   0.000006  -0.000008
    23  H   -0.000011   0.000007   0.000012   0.000011  -0.000027  -0.000049
    24  H    0.000013  -0.000045   0.000113   0.000085  -0.000073   0.000077
    25  H    0.000184  -0.000071  -0.001360   0.000009   0.000303  -0.000102
    26  H   -0.000143   0.000585  -0.001506   0.000612  -0.004047  -0.001138
    27  H    0.000119  -0.000032  -0.000643   0.000101   0.000498   0.000554
              13         14         15         16         17         18
     1  C   -0.000624   0.008357   0.007157  -0.044913   0.025879  -0.000040
     2  C   -0.000187   0.010996  -0.017250   0.044828  -0.042100   0.046376
     3  C   -0.001111  -0.012392  -0.014065   0.051454  -0.047064  -0.006820
     4  C    0.003896  -0.010458   0.052426  -0.077516   0.079201  -0.048514
     5  O    0.000052   0.002888  -0.004764  -0.000147   0.002122   0.009779
     6  O   -0.000355  -0.000891  -0.007105   0.001072  -0.002933  -0.001881
     7  H    0.000019  -0.000122  -0.000710  -0.000120  -0.000214  -0.000920
     8  H    0.000003   0.000206   0.000637  -0.001193   0.001260  -0.000071
     9  H    0.000416   0.001578   0.007591   0.002731  -0.004372   0.006837
    10  H   -0.000075  -0.000555  -0.002221   0.002116  -0.001663  -0.001839
    11  H    0.000012   0.001033  -0.000138  -0.005144   0.005293   0.000945
    12  H    0.000011   0.000503  -0.002838   0.002093  -0.000772   0.000963
    13  C    6.721460  -1.469107   1.159067   0.594696  -0.298950   0.037109
    14  C   -1.469107  11.090253  -3.991677  -2.042619   0.669987   0.033210
    15  C    1.159067  -3.991677  11.605063  -0.723363   0.038794   0.010312
    16  C    0.594696  -2.042619  -0.723363  13.187205  -2.609801   0.345008
    17  C   -0.298950   0.669987   0.038794  -2.609801   7.983562  -0.219359
    18  N    0.037109   0.033210   0.010312   0.345008  -0.219359   6.729186
    19  C   -0.441617  -0.448773   0.456389  -0.164548   0.969178  -0.179014
    20  C   -0.483511   1.687279  -2.890424  -2.359143  -0.610564   0.406037
    21  H    0.397678  -0.044047   0.020102  -0.011685  -0.006100   0.000448
    22  H    0.326568   0.105082  -0.082982  -0.078594   0.016118  -0.000156
    23  H   -0.118533   0.460155  -0.118683   0.007837   0.001117  -0.001907
    24  H    0.037956   0.012768  -0.131355   0.496154  -0.104318   0.017054
    25  H   -0.004873   0.004142   0.020689  -0.250933   0.591427  -0.138660
    26  H   -0.004046   0.027886  -0.026746  -0.017374   0.003327  -0.073423
    27  H    0.015951  -0.009511  -0.094469   0.024586   0.013678   0.005266
              19         20         21         22         23         24
     1  C    0.052038  -0.040061  -0.000010   0.000094   0.000101  -0.001263
     2  C   -0.091711   0.212917  -0.000084  -0.000070   0.000920   0.001067
     3  C    0.136128  -0.131576  -0.000023  -0.000073   0.000361   0.000747
     4  C   -0.073231  -0.093911   0.000178   0.000121  -0.002009  -0.001161
     5  O   -0.100540   0.074806  -0.000002  -0.000002   0.000062   0.000055
     6  O    0.050894  -0.029317  -0.000001  -0.000008   0.000112   0.000020
     7  H   -0.000706   0.002347   0.000000  -0.000000  -0.000011   0.000013
     8  H   -0.002836   0.000378  -0.000000   0.000004   0.000007  -0.000045
     9  H   -0.015324   0.007145  -0.000005  -0.000001   0.000012   0.000113
    10  H    0.011684  -0.008865  -0.000000  -0.000008   0.000011   0.000085
    11  H   -0.008660   0.010089  -0.000000   0.000006  -0.000027  -0.000073
    12  H   -0.022273   0.021978   0.000002  -0.000008  -0.000049   0.000077
    13  C   -0.441617  -0.483511   0.397678   0.326568  -0.118533   0.037956
    14  C   -0.448773   1.687279  -0.044047   0.105082   0.460155   0.012768
    15  C    0.456389  -2.890424   0.020102  -0.082982  -0.118683  -0.131355
    16  C   -0.164548  -2.359143  -0.011685  -0.078594   0.007837   0.496154
    17  C    0.969178  -0.610564  -0.006100   0.016118   0.001117  -0.104318
    18  N   -0.179014   0.406037   0.000448  -0.000156  -0.001907   0.017054
    19  C   10.542901  -4.234965  -0.003688  -0.012521   0.062707  -0.057310
    20  C   -4.234965  13.647573   0.014857   0.060859   0.010154   0.040833
    21  H   -0.003688   0.014857   0.548828  -0.037912  -0.019064   0.001794
    22  H   -0.012521   0.060859  -0.037912   0.566435   0.011003  -0.003067
    23  H    0.062707   0.010154  -0.019064   0.011003   0.527801   0.000596
    24  H   -0.057310   0.040833   0.001794  -0.003067   0.000596   0.609099
    25  H    0.044133  -0.018998  -0.000073   0.001439   0.000043  -0.014883
    26  H    0.470641  -0.085502  -0.000072  -0.000051   0.001738   0.000969
    27  H   -0.061982   0.386730   0.000504   0.000923   0.001772  -0.001584
              25         26         27
     1  C    0.002280   0.015824  -0.002048
     2  C   -0.004646   0.013117  -0.007191
     3  C   -0.003844   0.019006   0.000525
     4  C    0.007900  -0.054690   0.007682
     5  O   -0.000176   0.020259  -0.002169
     6  O   -0.000094  -0.003413   0.000583
     7  H    0.000184  -0.000143   0.000119
     8  H   -0.000071   0.000585  -0.000032
     9  H   -0.001360  -0.001506  -0.000643
    10  H    0.000009   0.000612   0.000101
    11  H    0.000303  -0.004047   0.000498
    12  H   -0.000102  -0.001138   0.000554
    13  C   -0.004873  -0.004046   0.015951
    14  C    0.004142   0.027886  -0.009511
    15  C    0.020689  -0.026746  -0.094469
    16  C   -0.250933  -0.017374   0.024586
    17  C    0.591427   0.003327   0.013678
    18  N   -0.138660  -0.073423   0.005266
    19  C    0.044133   0.470641  -0.061982
    20  C   -0.018998  -0.085502   0.386730
    21  H   -0.000073  -0.000072   0.000504
    22  H    0.001439  -0.000051   0.000923
    23  H    0.000043   0.001738   0.001772
    24  H   -0.014883   0.000969  -0.001584
    25  H    0.571927  -0.000748   0.002287
    26  H   -0.000748   0.519577  -0.011744
    27  H    0.002287  -0.011744   0.545144
 Mulliken charges:
               1
     1  C   -0.718755
     2  C    1.191409
     3  C   -0.618566
     4  C   -0.577402
     5  O   -0.255699
     6  O   -0.106269
     7  H    0.147460
     8  H    0.171330
     9  H    0.179642
    10  H    0.142104
    11  H    0.187907
    12  H    0.256956
    13  C   -0.471906
    14  C   -0.086172
    15  C    0.730563
    16  C   -0.372689
    17  C   -0.452735
    18  N    0.024075
    19  C   -0.876994
    20  C    0.402854
    21  H    0.138376
    22  H    0.126803
    23  H    0.173776
    24  H    0.095659
    25  H    0.192698
    26  H    0.191102
    27  H    0.184472
 Sum of Mulliken charges =  -0.00000
 Mulliken charges with hydrogens summed into heavy atoms:
               1
     1  C   -0.220323
     2  C    1.191409
     3  C   -0.288555
     4  C   -0.577402
     5  O   -0.255699
     6  O    0.150687
    13  C   -0.206727
    14  C    0.087604
    15  C    0.730563
    16  C   -0.277029
    17  C   -0.260036
    18  N    0.024075
    19  C   -0.685892
    20  C    0.587326
 DipInt: DoE/N= T F RetVal/Mat= T F Init=T NMatP=  1 IDeriv=0 Min/MaxMlt=  0  4
 Entering OneElI...
 OneElI was handed 25769367289 working-precision words.
 Multipole integrals L=0 to 4 MinM= 0 MaxM= 0.
 Requested accuracy = 0.1000D-12
 ShPair: Thresh= 1.00D-13 NBox=     0 BxSize= 0.00D+00 RnKept= 2.00D+01
         NSMCal=                11175 NSMKep=                9451
 PrmmSu-InSpLW:  IPartL=    0 NPrtUS=    1 NPrtUL=    1 DoSpLW=F IThBeg=    0 IThEnd=    0 NThAct=    1.
 PrsmSu:  NPrtUS=   1 ThrOK=F IAlg=1 NPAlg=1 LenDen=           0 ISkipM=0 DoSpLW=F IThBeg=    0 IThEnd=    0.
 Prism:   IPart=     0 DynPar=F LinDyn=F Incr=          94.
 PRISM was handed 25768741621 working-precision words and  9451 shell-pairs
 IPart=  0 NShTot=        9451 NBatch=         104 AvBLen=        90.9
 PrsmSu-ThDecC:  IPartSL=    0    0 NPrtUSL=    1    1 IThBeg=    0 IThEnd=    0 CPU=   -1 GPU=   -1 NThAct=    1.
 PrSmSu:  NxtVal=             95.
 Electronic moments (au):
       -102.00000000          0.13418249          0.83701808          1.35538045
      -3347.82333398       -609.40306375       -337.96165413         -7.65003158
         -3.64988150         -0.08054919      -4572.48156606       -184.17325352
       -179.16275412        216.11401809       1293.23098311      -1764.95944178
        953.22596798         27.35360802        -43.85020574        165.15901377
    -184902.27971701      -7822.72729061      -3254.89260182      16601.68532354
      -8016.65390651      -2146.93834831        424.46596731       1412.23767593
       -523.01275316     -17626.17152264     -11342.93506989      -1809.26957640
        937.89680788         23.36467701        341.15852580
 Electronic spatial extent (au):  <R**2>=           4295.1881
 DipInt: DoE/N= F T RetVal/Mat= T F Init=T NMatP=  1 IDeriv=0 Min/MaxMlt=  0  4
 Nuclear    moments (au):
        102.00000000         -0.00000000          0.00000000          0.00000000
       3298.14084899        545.92184500        274.45553943          0.00000000
         -0.00000000          0.00000000       4532.58341745        196.97085045
        191.80691191       -193.46954448      -1254.64165989       1825.34238689
       -988.07850215        -29.82010088         52.74476028       -150.48461473
     173341.15347349       5719.65971806       2050.75952175     -16793.22741575
       8115.18571795       2035.87283347       -392.39318248      -1507.32246421
        486.13768776      15369.95614272       9117.44112374       1217.39381692
      -1027.02867059        -10.92366945       -338.44764579
 Total      moments (au):
         -0.00000000          0.13418249          0.83701808          1.35538045
        -49.68248499        -63.48121874        -63.50611470         -7.65003158
         -3.64988150         -0.08054919        -39.89814861         12.79759693
         12.64415779         22.64447361         38.58932322         60.38294511
        -34.85253417         -2.46649286          8.89455453         14.67439905
     -11561.12624352      -2103.06757255      -1204.13308007       -191.54209222
         98.53181143       -111.06551484         32.07278483        -95.08478829
        -36.87506541      -2256.21537991      -2225.49394615       -591.87575948
        -89.13186271         12.44100756          2.71088002
 Traceless Quadrup. (au):
          9.20745449         -4.59127927         -4.61617522         -7.65003158
         -3.64988150         -0.08054919
 Charge=             -0.0000 electrons
 Dipole moment (field-independent basis, Debye):
    X=              0.3411    Y=              2.1275    Z=              3.4450  Tot=              4.0633
 Quadrupole moment (field-independent basis, Debye-Ang):
   XX=            -66.8246   YY=            -85.3844   ZZ=            -85.4179
   XY=            -10.2896   XZ=             -4.9092   YZ=             -0.1083
 Traceless Quadrupole moment (field-independent basis, Debye-Ang):
   XX=             12.3843   YY=             -6.1754   ZZ=             -6.2089
   XY=            -10.2896   XZ=             -4.9092   YZ=             -0.1083
 Octapole moment (field-independent basis, Debye-Ang**2):
  XXX=            -28.3980  YYY=              9.1088  ZZZ=              8.9996  XYY=             16.1175
  XXY=             27.4664  XXZ=             42.9783  XZZ=            -24.8067  YZZ=             -1.7556
  YYZ=              6.3308  XYZ=             10.4447
 Hexadecapole moment (field-independent basis, Debye-Ang**3):
 XXXX=          -4354.4745 YYYY=           -792.1161 ZZZZ=           -453.5343 XXXY=            -72.1439
 XXXZ=             37.1118 YYYX=            -41.8326 YYYZ=             12.0801 ZZZX=            -35.8135
 ZZZY=            -13.8889 XXYY=           -849.7989 XXZZ=           -838.2277 YYZZ=           -222.9288
 XXYZ=            -33.5713 YYXZ=              4.6859 ZZXY=              1.0210
 N-N= 7.952220897231D+02 E-N=-3.064160355079D+03  KE= 6.296832210558D+02
 Entering OneElI...
 OneElI was handed 25769463047 working-precision words.
 Calculate electrostatic properties
    NBasis =   399  MinDer = 0  MaxDer = 0
    NGrid  =    27  NMatD  =   1
 Requested accuracy = 0.1000D-12
 ShPair: Thresh= 1.00D-13 NBox=     0 BxSize= 0.00D+00 RnKept= 2.00D+01
         NSMCal=                11175 NSMKep=                8695
 PrmmSu-InSpLW:  IPartL=    0 NPrtUS=   48 NPrtUL=    1 DoSpLW=F IThBeg=    0 IThEnd=   47 NThAct=   48.
 PrsmSu:  NPrtUS=  48 ThrOK=T IAlg=1 NPAlg=1 LenDen=           0 ISkipM=0 DoSpLW=F IThBeg=    0 IThEnd=   47.
 Prism:   IPart=     0 DynPar=F LinDyn=F Incr=          48.
 PRISM was handed   536681674 working-precision words and  8695 shell-pairs
 PRISM was handed   536681674 working-precision words and  8695 shell-pairs
 PRISM was handed   536681674 working-precision words and  8695 shell-pairs
 PRISM was handed   536681674 working-precision words and  8695 shell-pairs
 PRISM was handed   536681674 working-precision words and  8695 shell-pairs
 PRISM was handed   536681674 working-precision words and  8695 shell-pairs
 PRISM was handed   536681674 working-precision words and  8695 shell-pairs
 PRISM was handed   536681674 working-precision words and  8695 shell-pairs
 PRISM was handed   536681674 working-precision words and  8695 shell-pairs
 PRISM was handed   536681674 working-precision words and  8695 shell-pairs
 PRISM was handed   536681674 working-precision words and  8695 shell-pairs
 PRISM was handed   536681674 working-precision words and  8695 shell-pairs
 PRISM was handed   536681674 working-precision words and  8695 shell-pairs
 PRISM was handed   536681674 working-precision words and  8695 shell-pairs
 PRISM was handed   536681674 working-precision words and  8695 shell-pairs
 PRISM was handed   536681674 working-precision words and  8695 shell-pairs
 PRISM was handed   536681674 working-precision words and  8695 shell-pairs
 PRISM was handed   536681674 working-precision words and  8695 shell-pairs
 PRISM was handed   536681674 working-precision words and  8695 shell-pairs
 PRISM was handed   536681674 working-precision words and  8695 shell-pairs
 PRISM was handed   536681674 working-precision words and  8695 shell-pairs
 PRISM was handed   536681674 working-precision words and  8695 shell-pairs
 PRISM was handed   536681674 working-precision words and  8695 shell-pairs
 PRISM was handed   536681674 working-precision words and  8695 shell-pairs
 PRISM was handed   536681674 working-precision words and  8695 shell-pairs
 PRISM was handed   536681674 working-precision words and  8695 shell-pairs
 PRISM was handed   536681674 working-precision words and  8695 shell-pairs
 PRISM was handed   536681674 working-precision words and  8695 shell-pairs
 PRISM was handed   536681674 working-precision words and  8695 shell-pairs
 PRISM was handed   536681674 working-precision words and  8695 shell-pairs
 PRISM was handed   536681674 working-precision words and  8695 shell-pairs
 PRISM was handed   536681674 working-precision words and  8695 shell-pairs
 PRISM was handed   536681674 working-precision words and  8695 shell-pairs
 PRISM was handed   536681674 working-precision words and  8695 shell-pairs
 PRISM was handed   536681674 working-precision words and  8695 shell-pairs
 PRISM was handed   536681674 working-precision words and  8695 shell-pairs
 PRISM was handed   536681674 working-precision words and  8695 shell-pairs
 PRISM was handed   536681674 working-precision words and  8695 shell-pairs
 PRISM was handed   536681674 working-precision words and  8695 shell-pairs
 PRISM was handed   536681674 working-precision words and  8695 shell-pairs
 PRISM was handed   536681674 working-precision words and  8695 shell-pairs
 PRISM was handed   536681674 working-precision words and  8695 shell-pairs
 PRISM was handed   536681674 working-precision words and  8695 shell-pairs
 PRISM was handed   536681674 working-precision words and  8695 shell-pairs
 PRISM was handed   536681674 working-precision words and  8695 shell-pairs
 PRISM was handed   536681674 working-precision words and  8695 shell-pairs
 PRISM was handed   536681674 working-precision words and  8695 shell-pairs
 PRISM was handed   536681674 working-precision words and  8695 shell-pairs
 IPart= 46 NShTot=        4401 NBatch=         163 AvBLen=        27.0
 PrsmSu-ThDecC:  IPartSL=   46    0 NPrtUSL=   48    1 IThBeg=    0 IThEnd=   47 CPU=   -1 GPU=   -1 NThAct=   48.
 IPart= 23 NShTot=        4752 NBatch=         176 AvBLen=        27.0
 PrsmSu-ThDecC:  IPartSL=   23    0 NPrtUSL=   48    1 IThBeg=    0 IThEnd=   47 CPU=   -1 GPU=   -1 NThAct=   47.
 IPart= 33 NShTot=        4671 NBatch=         173 AvBLen=        27.0
 PrsmSu-ThDecC:  IPartSL=   33    0 NPrtUSL=   48    1 IThBeg=    0 IThEnd=   47 CPU=   -1 GPU=   -1 NThAct=   46.
 IPart= 15 NShTot=        4941 NBatch=         183 AvBLen=        27.0
 PrsmSu-ThDecC:  IPartSL=   15    0 NPrtUSL=   48    1 IThBeg=    0 IThEnd=   47 CPU=   -1 GPU=   -1 NThAct=   45.
 IPart=  0 NShTot=        5832 NBatch=         216 AvBLen=        27.0
 PrsmSu-ThDecC:  IPartSL=    0    0 NPrtUSL=   48    1 IThBeg=    0 IThEnd=   47 CPU=   -1 GPU=   -1 NThAct=   44.
 IPart= 44 NShTot=        4428 NBatch=         164 AvBLen=        27.0
 PrsmSu-ThDecC:  IPartSL=   44    0 NPrtUSL=   48    1 IThBeg=    0 IThEnd=   47 CPU=   -1 GPU=   -1 NThAct=   43.
 IPart= 42 NShTot=        4455 NBatch=         165 AvBLen=        27.0
 PrsmSu-ThDecC:  IPartSL=   42    0 NPrtUSL=   48    1 IThBeg=    0 IThEnd=   47 CPU=   -1 GPU=   -1 NThAct=   42.
 IPart= 38 NShTot=        4536 NBatch=         168 AvBLen=        27.0
 PrsmSu-ThDecC:  IPartSL=   38    0 NPrtUSL=   48    1 IThBeg=    0 IThEnd=   47 CPU=   -1 GPU=   -1 NThAct=   41.
 IPart= 26 NShTot=        4752 NBatch=         176 AvBLen=        27.0
 PrsmSu-ThDecC:  IPartSL=   26    0 NPrtUSL=   48    1 IThBeg=    0 IThEnd=   47 CPU=   -1 GPU=   -1 NThAct=   40.
 IPart= 35 NShTot=        4644 NBatch=         172 AvBLen=        27.0
 PrsmSu-ThDecC:  IPartSL=   35    0 NPrtUSL=   48    1 IThBeg=    0 IThEnd=   47 CPU=   -1 GPU=   -1 NThAct=   39.
 IPart= 20 NShTot=        4860 NBatch=         180 AvBLen=        27.0
 PrsmSu-ThDecC:  IPartSL=   20    0 NPrtUSL=   48    1 IThBeg=    0 IThEnd=   47 CPU=   -1 GPU=   -1 NThAct=   38.
 IPart= 31 NShTot=        4725 NBatch=         175 AvBLen=        27.0
 IPart= 39 NShTot=        4536 NBatch=         168 AvBLen=        27.0
 IPart= 16 NShTot=        4914 NBatch=         182 AvBLen=        27.0
 PrsmSu-ThDecC:  IPartSL=   31    0 NPrtUSL=   48    1 IThBeg=    0 IThEnd=   47 CPU=   -1 GPU=   -1 NThAct=   37.
 PrsmSu-ThDecC:  IPartSL=   39    0 NPrtUSL=   48    1 IThBeg=    0 IThEnd=   47 CPU=   -1 GPU=   -1 NThAct=   36.
 PrsmSu-ThDecC:  IPartSL=   16    0 NPrtUSL=   48    1 IThBeg=    0 IThEnd=   47 CPU=   -1 GPU=   -1 NThAct=   35.
 IPart= 21 NShTot=        4860 NBatch=         180 AvBLen=        27.0
 PrsmSu-ThDecC:  IPartSL=   21    0 NPrtUSL=   48    1 IThBeg=    0 IThEnd=   47 CPU=   -1 GPU=   -1 NThAct=   34.
 IPart= 30 NShTot=        4725 NBatch=         175 AvBLen=        27.0
 PrsmSu-ThDecC:  IPartSL=   30    0 NPrtUSL=   48    1 IThBeg=    0 IThEnd=   47 CPU=   -1 GPU=   -1 NThAct=   33.
 IPart=  1 NShTot=        5724 NBatch=         212 AvBLen=        27.0
 PrsmSu-ThDecC:  IPartSL=    1    0 NPrtUSL=   48    1 IThBeg=    0 IThEnd=   47 CPU=   -1 GPU=   -1 NThAct=   32.
 IPart=  2 NShTot=        5643 NBatch=         209 AvBLen=        27.0
 PrsmSu-ThDecC:  IPartSL=    2    0 NPrtUSL=   48    1 IThBeg=    0 IThEnd=   47 CPU=   -1 GPU=   -1 NThAct=   31.
 IPart=  4 NShTot=        5508 NBatch=         204 AvBLen=        27.0
 PrsmSu-ThDecC:  IPartSL=    4    0 NPrtUSL=   48    1 IThBeg=    0 IThEnd=   47 CPU=   -1 GPU=   -1 NThAct=   30.
 IPart=  3 NShTot=        5616 NBatch=         208 AvBLen=        27.0
 PrsmSu-ThDecC:  IPartSL=    3    0 NPrtUSL=   48    1 IThBeg=    0 IThEnd=   47 CPU=   -1 GPU=   -1 NThAct=   29.
 IPart= 43 NShTot=        4428 NBatch=         164 AvBLen=        27.0
 PrsmSu-ThDecC:  IPartSL=   43    0 NPrtUSL=   48    1 IThBeg=    0 IThEnd=   47 CPU=   -1 GPU=   -1 NThAct=   28.
 IPart= 22 NShTot=        4779 NBatch=         177 AvBLen=        27.0
 PrsmSu-ThDecC:  IPartSL=   22    0 NPrtUSL=   48    1 IThBeg=    0 IThEnd=   47 CPU=   -1 GPU=   -1 NThAct=   27.
 IPart= 32 NShTot=        4725 NBatch=         175 AvBLen=        27.0
 PrsmSu-ThDecC:  IPartSL=   32    0 NPrtUSL=   48    1 IThBeg=    0 IThEnd=   47 CPU=   -1 GPU=   -1 NThAct=   26.
 IPart= 36 NShTot=        4617 NBatch=         171 AvBLen=        27.0
 PrsmSu-ThDecC:  IPartSL=   36    0 NPrtUSL=   48    1 IThBeg=    0 IThEnd=   47 CPU=   -1 GPU=   -1 NThAct=   25.
 IPart=  8 NShTot=        5265 NBatch=         195 AvBLen=        27.0
 PrsmSu-ThDecC:  IPartSL=    8    0 NPrtUSL=   48    1 IThBeg=    0 IThEnd=   47 CPU=   -1 GPU=   -1 NThAct=   24.
 IPart=  6 NShTot=        5400 NBatch=         200 AvBLen=        27.0
 PrsmSu-ThDecC:  IPartSL=    6    0 NPrtUSL=   48    1 IThBeg=    0 IThEnd=   47 CPU=   -1 GPU=   -1 NThAct=   23.
 IPart=  5 NShTot=        5481 NBatch=         203 AvBLen=        27.0
 PrsmSu-ThDecC:  IPartSL=    5    0 NPrtUSL=   48    1 IThBeg=    0 IThEnd=   47 CPU=   -1 GPU=   -1 NThAct=   22.
 IPart= 17 NShTot=        4914 NBatch=         182 AvBLen=        27.0
 PrsmSu-ThDecC:  IPartSL=   17    0 NPrtUSL=   48    1 IThBeg=    0 IThEnd=   47 CPU=   -1 GPU=   -1 NThAct=   21.
 IPart= 45 NShTot=        4401 NBatch=         163 AvBLen=        27.0
 PrsmSu-ThDecC:  IPartSL=   45    0 NPrtUSL=   48    1 IThBeg=    0 IThEnd=   47 CPU=   -1 GPU=   -1 NThAct=   20.
 IPart= 27 NShTot=        4725 NBatch=         175 AvBLen=        27.0
 PrsmSu-ThDecC:  IPartSL=   27    0 NPrtUSL=   48    1 IThBeg=    0 IThEnd=   47 CPU=   -1 GPU=   -1 NThAct=   19.
 IPart= 12 NShTot=        5103 NBatch=         189 AvBLen=        27.0
 PrsmSu-ThDecC:  IPartSL=   12    0 NPrtUSL=   48    1 IThBeg=    0 IThEnd=   47 CPU=   -1 GPU=   -1 NThAct=   18.
 IPart= 28 NShTot=        4725 NBatch=         175 AvBLen=        27.0
 PrsmSu-ThDecC:  IPartSL=   28    0 NPrtUSL=   48    1 IThBeg=    0 IThEnd=   47 CPU=   -1 GPU=   -1 NThAct=   17.
 IPart= 24 NShTot=        4752 NBatch=         176 AvBLen=        27.0
 PrsmSu-ThDecC:  IPartSL=   24    0 NPrtUSL=   48    1 IThBeg=    0 IThEnd=   47 CPU=   -1 GPU=   -1 NThAct=   16.
 IPart= 47 NShTot=        4401 NBatch=         163 AvBLen=        27.0
 PrsmSu-ThDecC:  IPartSL=   47    0 NPrtUSL=   48    1 IThBeg=    0 IThEnd=   47 CPU=   -1 GPU=   -1 NThAct=   15.
 IPart= 19 NShTot=        4860 NBatch=         180 AvBLen=        27.0
 PrsmSu-ThDecC:  IPartSL=   19    0 NPrtUSL=   48    1 IThBeg=    0 IThEnd=   47 CPU=   -1 GPU=   -1 NThAct=   14.
 IPart=  9 NShTot=        5265 NBatch=         195 AvBLen=        27.0
 PrsmSu-ThDecC:  IPartSL=    9    0 NPrtUSL=   48    1 IThBeg=    0 IThEnd=   47 CPU=   -1 GPU=   -1 NThAct=   13.
 IPart= 18 NShTot=        4860 NBatch=         180 AvBLen=        27.0
 IPart= 25 NShTot=        4752 NBatch=         176 AvBLen=        27.0
 PrsmSu-ThDecC:  IPartSL=   18    0 NPrtUSL=   48    1 IThBeg=    0 IThEnd=   47 CPU=   -1 GPU=   -1 NThAct=   12.
 PrsmSu-ThDecC:  IPartSL=   25    0 NPrtUSL=   48    1 IThBeg=    0 IThEnd=   47 CPU=   -1 GPU=   -1 NThAct=   11.
 IPart= 41 NShTot=        4482 NBatch=         166 AvBLen=        27.0
 PrsmSu-ThDecC:  IPartSL=   41    0 NPrtUSL=   48    1 IThBeg=    0 IThEnd=   47 CPU=   -1 GPU=   -1 NThAct=   10.
 IPart= 34 NShTot=        4644 NBatch=         172 AvBLen=        27.0
 PrsmSu-ThDecC:  IPartSL=   34    0 NPrtUSL=   48    1 IThBeg=    0 IThEnd=   47 CPU=   -1 GPU=   -1 NThAct=    9.
 IPart= 37 NShTot=        4617 NBatch=         171 AvBLen=        27.0
 PrsmSu-ThDecC:  IPartSL=   37    0 NPrtUSL=   48    1 IThBeg=    0 IThEnd=   47 CPU=   -1 GPU=   -1 NThAct=    8.
 IPart= 13 NShTot=        5049 NBatch=         187 AvBLen=        27.0
 PrsmSu-ThDecC:  IPartSL=   13    0 NPrtUSL=   48    1 IThBeg=    0 IThEnd=   47 CPU=   -1 GPU=   -1 NThAct=    7.
 IPart= 40 NShTot=        4509 NBatch=         167 AvBLen=        27.0
 PrsmSu-ThDecC:  IPartSL=   40    0 NPrtUSL=   48    1 IThBeg=    0 IThEnd=   47 CPU=   -1 GPU=   -1 NThAct=    6.
 IPart= 29 NShTot=        4725 NBatch=         175 AvBLen=        27.0
 IPart= 11 NShTot=        5184 NBatch=         192 AvBLen=        27.0
 PrsmSu-ThDecC:  IPartSL=   29    0 NPrtUSL=   48    1 IThBeg=    0 IThEnd=   47 CPU=   -1 GPU=   -1 NThAct=    5.
 IPart= 14 NShTot=        4968 NBatch=         184 AvBLen=        27.0
 PrsmSu-ThDecC:  IPartSL=   11    0 NPrtUSL=   48    1 IThBeg=    0 IThEnd=   47 CPU=   -1 GPU=   -1 NThAct=    4.
 PrsmSu-ThDecC:  IPartSL=   14    0 NPrtUSL=   48    1 IThBeg=    0 IThEnd=   47 CPU=   -1 GPU=   -1 NThAct=    3.
 IPart= 10 NShTot=        5238 NBatch=         194 AvBLen=        27.0
 PrsmSu-ThDecC:  IPartSL=   10    0 NPrtUSL=   48    1 IThBeg=    0 IThEnd=   47 CPU=   -1 GPU=   -1 NThAct=    2.
 IPart=  7 NShTot=        5373 NBatch=         199 AvBLen=        27.0
 PrsmSu-ThDecC:  IPartSL=    7    0 NPrtUSL=   48    1 IThBeg=    0 IThEnd=   47 CPU=   -1 GPU=   -1 NThAct=    1.
 PrSmSu:  NxtVal=           2305.
 --------------------------------------------------------
       Center         ----      EFG at Nuclei      ----
                      3XX-RR        3YY-RR        3ZZ-RR
 --------------------------------------------------------
     1   Atom        0.030181      0.043202     -0.073383
     2   Atom       -0.176841      0.105084      0.071757
     3   Atom       -0.373403      0.117913      0.255490
     4   Atom       -0.298236      0.177062      0.121174
     5   Atom       -0.780629      1.383558     -0.602929
     6   Atom        1.021489      0.232897     -1.254386
     7   Atom       -0.070929      0.064970      0.005959
     8   Atom        0.115295     -0.261798      0.146503
     9   Atom       -0.234737      0.153708      0.081029
    10   Atom        0.122880     -0.269285      0.146405
    11   Atom        0.163942      0.102819     -0.266761
    12   Atom        0.209651      0.016599     -0.226250
    13   Atom        0.151292      0.122142     -0.273434
    14   Atom        0.142089      0.098886     -0.240975
    15   Atom        0.111470      0.173705     -0.285175
    16   Atom        0.072284      0.123512     -0.195796
    17   Atom        0.051589      0.190932     -0.242521
    18   Atom        0.478753      0.114585     -0.593338
    19   Atom        0.175620      0.052945     -0.228565
    20   Atom        0.115409      0.119731     -0.235139
    21   Atom       -0.045709     -0.066427      0.112136
    22   Atom        0.141880     -0.302942      0.161063
    23   Atom        0.139499     -0.306040      0.166541
    24   Atom       -0.167762      0.042858      0.124905
    25   Atom        0.154066     -0.302709      0.148643
    26   Atom       -0.119941      0.068073      0.051868
    27   Atom        0.145444     -0.284677      0.139232
 --------------------------------------------------------
                        XY            XZ            YZ
 --------------------------------------------------------
     1   Atom       -0.007517      0.034958     -0.063170
     2   Atom       -0.125757      0.052243     -0.079637
     3   Atom       -0.200353      0.087368      0.011364
     4   Atom       -0.179289     -0.130935      0.205987
     5   Atom       -0.405598      0.006717     -0.633848
     6   Atom        0.193867      0.556812      0.250231
     7   Atom       -0.140838      0.186438      0.110288
     8   Atom        0.136628     -0.003314      0.010824
     9   Atom        0.014545     -0.165931      0.001432
    10   Atom        0.138569      0.021649     -0.069880
    11   Atom       -0.000005     -0.007526     -0.147835
    12   Atom        0.140908      0.199027     -0.303011
    13   Atom        0.021854      0.191465      0.016569
    14   Atom        0.059472      0.186549      0.057175
    15   Atom       -0.001749      0.181778      0.110095
    16   Atom       -0.027492      0.124399      0.069201
    17   Atom       -0.063843      0.122132      0.101662
    18   Atom       -0.679590      0.381058     -0.100534
    19   Atom       -0.032992      0.231801      0.080719
    20   Atom       -0.050894      0.174588      0.063918
    21   Atom        0.213880     -0.115751      0.110814
    22   Atom       -0.082399     -0.018430     -0.063597
    23   Atom       -0.080356     -0.015422     -0.048684
    24   Atom       -0.184365     -0.132278     -0.078198
    25   Atom        0.009646     -0.005259     -0.097954
    26   Atom       -0.143716     -0.178300     -0.096639
    27   Atom       -0.055326     -0.024277     -0.121099
 --------------------------------------------------------


 ---------------------------------------------------------------------------------
              Nuclear Quadrupole Coupling Constant in Principal Axis System
 ---------------------------------------------------------------------------------

       Atom             a.u.   MegaHertz   Gauss  10(-4) cm-1        Axes

              Baa    -0.7391     3.549     1.267     1.184 -0.3972 -0.2111  0.8931
    18 N(14)  Bbb    -0.3409     1.637     0.584     0.546  0.4702  0.7889  0.3956
              Bcc     1.0799    -5.187    -1.851    -1.730  0.7881 -0.5771  0.2141
 

 ---------------------------------------------------------------------------------

 No NMR shielding tensors so no spin-rotation constants.
 Leave Link  601 at Thu Apr 21 10:51:29 2022, MaxMem= 25769803776 cpu:              12.2 elap:               0.3
 Calling FoFJK, ICntrl=      2127 FMM=F ISym2X=0 I1Cent= 0 IOpClX= 0 NMat=1 NMatS=1 NMatT=0.
 ***** Axes restored to original set *****
 -------------------------------------------------------------------
 Center     Atomic                   Forces (Hartrees/Bohr)
 Number     Number              X              Y              Z
 -------------------------------------------------------------------
      1        6          -0.001935557   -0.017406062    0.016905534
      2        6          -0.090524595    0.028689676    0.025207823
      3        6           0.026234458   -0.005990314   -0.006380596
      4        6           0.070733040   -0.001159027   -0.005066810
      5        8          -0.004633423    0.004968109   -0.018803663
      6        8           0.009243738   -0.027473352    0.020528427
      7        1           0.013695289   -0.000572332   -0.008746693
      8        1          -0.004186072   -0.006342756   -0.002546065
      9        1          -0.003333590    0.008565479   -0.007416191
     10        1          -0.001751561    0.005238633   -0.005505334
     11        1          -0.002070304   -0.006426412    0.006135142
     12        1          -0.011357816    0.016782625   -0.014803360
     13        6           0.021969357    0.021719859    0.001147913
     14        6          -0.042468063   -0.026314415   -0.018378406
     15        6           0.019305243    0.031198003    0.026971131
     16        6          -0.012335486   -0.003230813    0.017886934
     17        6           0.026058499   -0.012754255   -0.013437880
     18        7           0.009417645    0.003041234   -0.011187882
     19        6          -0.020768832   -0.018881260   -0.013492396
     20        6           0.006728537    0.014309514    0.022937085
     21        1          -0.001647033   -0.011191084   -0.001472157
     22        1           0.000000267   -0.002522494   -0.002265962
     23        1           0.002082726    0.003141952    0.004105643
     24        1          -0.006837650    0.004192055   -0.003007145
     25        1          -0.003756421   -0.000357311   -0.002026079
     26        1          -0.002884728    0.004713077    0.003041349
     27        1           0.005022332   -0.005938329   -0.010330361
 -------------------------------------------------------------------
 Cartesian Forces:  Max     0.090524595 RMS     0.018840588

 GradGradGradGradGradGradGradGradGradGradGradGradGradGradGradGradGradGrad
 Berny optimization.
 FormGI is forming the generalized inverse of G from B-inverse, IUseBI=4.
 Internal  Forces:  Max     0.065958708 RMS     0.010674874
 Search for a local minimum.
 Step number   1 out of a maximum of  126
 All quantities printed in internal units (Hartrees-Bohrs-Radians)
 Mixed Optimization -- RFO/linear search
 Second derivative matrix not updated -- first step.
 ITU=  0
     Eigenvalues ---    0.00230   0.00230   0.00368   0.01312   0.01502
     Eigenvalues ---    0.01727   0.01775   0.01795   0.01877   0.01945
     Eigenvalues ---    0.01975   0.02007   0.02043   0.02055   0.02081
     Eigenvalues ---    0.02097   0.02238   0.02642   0.02678   0.02771
     Eigenvalues ---    0.02771   0.02789   0.04117   0.05988   0.07749
     Eigenvalues ---    0.15823   0.15960   0.15968   0.15972   0.15989
     Eigenvalues ---    0.16000   0.16000   0.16000   0.16000   0.16000
     Eigenvalues ---    0.16000   0.16000   0.16000   0.16000   0.21988
     Eigenvalues ---    0.22009   0.22783   0.23859   0.24874   0.24895
     Eigenvalues ---    0.24946   0.24988   0.24992   0.25000   0.27760
     Eigenvalues ---    0.34719   0.34875   0.34875   0.35965   0.35976
     Eigenvalues ---    0.35978   0.35980   0.36000   0.36001   0.36012
     Eigenvalues ---    0.36048   0.36122   0.37128   0.38373   0.43213
     Eigenvalues ---    0.43769   0.45548   0.45726   0.46942   0.51777
     Eigenvalues ---    0.53874   0.54674   0.55353   0.58807   0.96882
 RFO step:  Lambda=-4.40489140D-02 EMin= 2.30000000D-03
 Linear search not attempted -- first point.
 Maximum step size (   0.300) exceeded in Quadratic search.
    -- Step size scaled by   0.832
 Iteration  1 RMS(Cart)=  0.11067594 RMS(Int)=  0.00319021
 Iteration  2 RMS(Cart)=  0.00516197 RMS(Int)=  0.00051948
 Iteration  3 RMS(Cart)=  0.00001732 RMS(Int)=  0.00051931
 Iteration  4 RMS(Cart)=  0.00000001 RMS(Int)=  0.00051931
 Variable       Old X    -DE/DX   Delta X   Delta X   Delta X     New X
                                 (Linear)    (Quad)   (Total)
    R1        2.92666  -0.00947   0.00000  -0.02447  -0.02447   2.90218
    R2        2.06133   0.00287   0.00000   0.00611   0.00611   2.06744
    R3        2.05877   0.00188   0.00000   0.00397   0.00397   2.06275
    R4        2.05879   0.00182   0.00000   0.00385   0.00385   2.06264
    R5        2.54819  -0.01002   0.00000  -0.01394  -0.01394   2.53425
    R6        2.64441   0.06596   0.00000   0.10942   0.10942   2.75383
    R7        2.04113  -0.00010   0.00000  -0.00021  -0.00021   2.04092
    R8        2.04007   0.00459   0.00000   0.00944   0.00944   2.04951
    R9        2.29914  -0.01556   0.00000  -0.01277  -0.01277   2.28637
   R10        2.63083  -0.01085   0.00000  -0.01757  -0.01757   2.61327
   R11        4.73826  -0.00110   0.00000  -0.01421  -0.01421   4.72405
   R12        1.78597   0.02117   0.00000   0.02785   0.02785   1.81382
   R13        2.56147  -0.01288   0.00000  -0.01837  -0.01837   2.54309
   R14        2.04116   0.00272   0.00000   0.00560   0.00560   2.04676
   R15        2.04137   0.00038   0.00000   0.00078   0.00078   2.04214
   R16        2.75654   0.00839   0.00000   0.01681   0.01681   2.77335
   R17        2.03891   0.00211   0.00000   0.00433   0.00433   2.04324
   R18        2.63901   0.00124   0.00000   0.00275   0.00274   2.64175
   R19        2.65417   0.00038   0.00000   0.00229   0.00228   2.65644
   R20        2.71080  -0.03279   0.00000  -0.06191  -0.06192   2.64888
   R21        2.04080   0.00299   0.00000   0.00616   0.00616   2.04695
   R22        2.54203  -0.01023   0.00000  -0.01542  -0.01542   2.52662
   R23        2.04119   0.00321   0.00000   0.00662   0.00662   2.04781
   R24        2.56910  -0.01575   0.00000  -0.02344  -0.02343   2.54568
   R25        2.65045  -0.01177   0.00000  -0.01888  -0.01888   2.63157
   R26        2.04081   0.00163   0.00000   0.00335   0.00335   2.04416
   R27        2.04063   0.00455   0.00000   0.00936   0.00936   2.04999
    A1        2.06200  -0.01463   0.00000  -0.06424  -0.06428   1.99773
    A2        1.85175   0.00460   0.00000   0.03295   0.03287   1.88461
    A3        1.87607   0.01394   0.00000   0.04674   0.04572   1.92179
    A4        1.74150   0.00993   0.00000   0.05949   0.06042   1.80192
    A5        2.01745  -0.00798   0.00000  -0.05213  -0.05289   1.96456
    A6        1.89781  -0.00512   0.00000  -0.01204  -0.01322   1.88459
    A7        2.03622   0.01639   0.00000   0.04654   0.04648   2.08270
    A8        2.12921  -0.00489   0.00000  -0.01369  -0.01376   2.11545
    A9        2.11725  -0.01146   0.00000  -0.03222  -0.03229   2.08496
   A10        2.23314  -0.01456   0.00000  -0.05930  -0.05937   2.17377
   A11        1.99818   0.01402   0.00000   0.05716   0.05708   2.05527
   A12        2.05183   0.00056   0.00000   0.00232   0.00224   2.05407
   A13        2.16284   0.00486   0.00000   0.01648   0.01527   2.17811
   A14        1.98826   0.01351   0.00000   0.04070   0.03949   2.02775
   A15        2.12494  -0.01748   0.00000  -0.04694  -0.04821   2.07673
   A16        1.67939  -0.00447   0.00000  -0.01821  -0.01821   1.66117
   A17        1.79063   0.02405   0.00000   0.09800   0.09800   1.88864
   A18        2.04671   0.00960   0.00000   0.04248   0.04091   2.08762
   A19        2.12308  -0.00065   0.00000   0.00070  -0.00087   2.12222
   A20        2.09912  -0.00747   0.00000  -0.02703  -0.02860   2.07051
   A21        2.06640   0.02841   0.00000   0.09008   0.08974   2.15614
   A22        2.10058  -0.00900   0.00000  -0.02253  -0.02286   2.07772
   A23        2.11262  -0.01907   0.00000  -0.06379  -0.06414   2.04848
   A24        2.27925  -0.01998   0.00000  -0.05899  -0.05909   2.22016
   A25        2.03050   0.01089   0.00000   0.02870   0.02869   2.05919
   A26        1.97001   0.00918   0.00000   0.03167   0.03166   2.00167
   A27        2.11410  -0.00599   0.00000  -0.01677  -0.01699   2.09711
   A28        2.08005   0.00784   0.00000   0.03029   0.03004   2.11009
   A29        2.07870  -0.00148   0.00000  -0.00782  -0.00810   2.07060
   A30        2.16452   0.00363   0.00000   0.00839   0.00814   2.17266
   A31        2.09703  -0.00412   0.00000  -0.01244  -0.01277   2.08426
   A32        2.01856   0.00073   0.00000   0.00738   0.00706   2.02562
   A33        2.01852   0.00395   0.00000   0.00604   0.00612   2.02464
[...]
 **** Fit       0.017845
 **** Fit       0.017133
 **** Fit       0.016174
 **** Fit       0.015069
 **** Fit       0.016375
 **** Fit       0.016888
 **** Fit       0.017148
 **** Fit       0.017109
 **** Fit       0.016762
 **** Fit       0.016139
 **** Fit       0.015307
 **** Fit       0.016048
 **** Fit       0.015993
 **** Fit       0.015684
 **** Fit       0.015898
 **** Fit       0.016413
 **** Fit       0.016671
 **** Fit       0.015354
 **** Fit       0.016398
 **** Fit       0.017291
 **** Fit       0.017920
 **** Fit       0.018196
 **** Fit       0.018090
 **** Fit       0.017635
 **** Fit       0.016911
 **** Fit       0.013906
 **** Fit       0.015183
 **** Fit       0.016547
 **** Fit       0.017888
 **** Fit       0.019044
 **** Fit       0.019834
 **** Fit       0.020120
 **** Fit       0.019866
 **** Fit       0.019151
 **** Fit       0.018118
 **** Fit       0.016921
 **** Fit       0.013312
 **** Fit       0.014658
 **** Fit       0.016228
 **** Fit       0.017971
 **** Fit       0.019745
 **** Fit       0.021300
 **** Fit       0.022334
 **** Fit       0.022615
 **** Fit       0.022106
 **** Fit       0.020973
 **** Fit       0.019479
 **** Fit       0.017867
 **** Fit       0.016299
 **** Fit       0.013872
 **** Fit       0.015460
 **** Fit       0.017392
 **** Fit       0.019643
 **** Fit       0.022039
 **** Fit       0.024206
 **** Fit       0.025623
 **** Fit       0.025877
 **** Fit       0.024934
 **** Fit       0.023142
 **** Fit       0.020978
 **** Fit       0.018815
 **** Fit       0.016847
 **** Fit       0.015140
 **** Fit       0.012990
 **** Fit       0.014426
 **** Fit       0.016267
 **** Fit       0.018611
 **** Fit       0.021490
 **** Fit       0.024733
 **** Fit       0.027796
 **** Fit       0.029800
 **** Fit       0.029993
 **** Fit       0.028355
 **** Fit       0.025585
 **** Fit       0.022516
 **** Fit       0.019676
 **** Fit       0.017264
 **** Fit       0.015289
 **** Fit       0.013687
 **** Fit       0.013366
 **** Fit       0.014934
 **** Fit       0.017001
 **** Fit       0.019740
 **** Fit       0.023281
 **** Fit       0.027505
 **** Fit       0.031706
 **** Fit       0.034493
 **** Fit       0.034581
 **** Fit       0.031983
 **** Fit       0.027962
 **** Fit       0.023841
 **** Fit       0.020296
 **** Fit       0.017469
 **** Fit       0.015269
 **** Fit       0.013556
 **** Fit       0.013701
 **** Fit       0.015352
 **** Fit       0.017563
 **** Fit       0.020568
 **** Fit       0.024596
 **** Fit       0.029623
 **** Fit       0.029559
 **** Fit       0.024553
 **** Fit       0.020479
 **** Fit       0.017379
 **** Fit       0.015055
 **** Fit       0.013297
 **** Fit       0.013979
 **** Fit       0.015649
 **** Fit       0.017876
 **** Fit       0.020907
 **** Fit       0.025004
 **** Fit       0.030197
 **** Fit       0.029559
 **** Fit       0.024279
 **** Fit       0.020087
 **** Fit       0.016960
 **** Fit       0.014653
 **** Fit       0.012928
 **** Fit       0.014194
 **** Fit       0.015816
 **** Fit       0.017926
 **** Fit       0.020721
 **** Fit       0.024398
 **** Fit       0.028938
 **** Fit       0.027754
 **** Fit       0.022989
 **** Fit       0.019156
 **** Fit       0.016262
 **** Fit       0.014109
 **** Fit       0.012488
 **** Fit       0.014349
 **** Fit       0.015874
 **** Fit       0.017776
 **** Fit       0.020165
 **** Fit       0.023121
 **** Fit       0.026535
 **** Fit       0.029822
 **** Fit       0.031808
 **** Fit       0.031407
 **** Fit       0.028703
 **** Fit       0.024874
 **** Fit       0.021091
 **** Fit       0.017909
 **** Fit       0.015412
 **** Fit       0.013496
 **** Fit       0.012023
 **** Fit       0.014447
 **** Fit       0.015854
 **** Fit       0.017516
 **** Fit       0.019467
 **** Fit       0.021684
 **** Fit       0.024007
 **** Fit       0.026017
 **** Fit       0.027052
 **** Fit       0.026578
 **** Fit       0.024664
 **** Fit       0.021951
 **** Fit       0.019135
 **** Fit       0.016625
 **** Fit       0.014552
 **** Fit       0.012893
 **** Fit       0.011576
 **** Fit       0.015777
 **** Fit       0.017218
 **** Fit       0.018790
 **** Fit       0.020418
 **** Fit       0.021939
 **** Fit       0.023076
 **** Fit       0.023490
 **** Fit       0.022955
 **** Fit       0.021538
 **** Fit       0.019579
 **** Fit       0.017473
 **** Fit       0.015498
 **** Fit       0.013783
 **** Fit       0.012351
 **** Fit       0.015646
 **** Fit       0.016902
 **** Fit       0.018183
 **** Fit       0.019398
 **** Fit       0.020404
 **** Fit       0.021023
 **** Fit       0.021084
 **** Fit       0.020507
 **** Fit       0.019361
 **** Fit       0.017844
 **** Fit       0.016190
 **** Fit       0.014587
 **** Fit       0.013141
 **** Fit       0.011888
 **** Fit       0.016554
 **** Fit       0.017621
 **** Fit       0.018557
 **** Fit       0.019247
 **** Fit       0.019572
 **** Fit       0.019445
 **** Fit       0.018849
 **** Fit       0.017853
 **** Fit       0.016593
 **** Fit       0.015222
 **** Fit       0.013867
 **** Fit       0.012613
 **** Fit       0.016147
 **** Fit       0.017050
 **** Fit       0.017794
 **** Fit       0.018287
 **** Fit       0.018445
 **** Fit       0.018224
 **** Fit       0.017634
 **** Fit       0.016741
 **** Fit       0.015646
 **** Fit       0.014461
 **** Fit       0.016430
 **** Fit       0.017033
 **** Fit       0.017396
 **** Fit       0.017460
 **** Fit       0.017201
 **** Fit       0.016638
 **** Fit       0.015831
 **** Fit       0.016237
 **** Fit       0.016510
 **** Fit       0.016520
 **** Fit       0.016254
 **** Fit       0.015735
 **** Fit       0.015432
 **** Fit       0.016131
 **** Fit       0.016606
 **** Fit       0.016798
 **** Fit       0.016689
 **** Fit       0.016302
 **** Fit       0.014517
 **** Fit       0.015623
 **** Fit       0.016673
 **** Fit       0.017547
 **** Fit       0.018124
 **** Fit       0.018317
 **** Fit       0.018103
 **** Fit       0.017535
 **** Fit       0.016708
 **** Fit       0.014135
 **** Fit       0.015428
 **** Fit       0.016796
 **** Fit       0.018124
 **** Fit       0.019240
 **** Fit       0.019958
 **** Fit       0.020140
 **** Fit       0.019766
 **** Fit       0.018932
 **** Fit       0.017801
 **** Fit       0.016537
 **** Fit       0.015263
 **** Fit       0.014849
 **** Fit       0.016394
 **** Fit       0.018085
 **** Fit       0.019774
 **** Fit       0.021218
 **** Fit       0.022126
 **** Fit       0.022284
 **** Fit       0.021673
 **** Fit       0.020468
 **** Fit       0.018936
 **** Fit       0.017315
 **** Fit       0.015760
 **** Fit       0.014012
 **** Fit       0.015540
 **** Fit       0.017353
 **** Fit       0.019406
 **** Fit       0.021527
 **** Fit       0.023381
 **** Fit       0.024531
 **** Fit       0.024648
 **** Fit       0.023715
 **** Fit       0.022034
 **** Fit       0.020017
 **** Fit       0.017993
 **** Fit       0.016143
 **** Fit       0.014532
 **** Fit       0.014462
 **** Fit       0.016146
 **** Fit       0.018197
 **** Fit       0.020592
 **** Fit       0.023147
 **** Fit       0.025435
 **** Fit       0.026846
 **** Fit       0.026900
 **** Fit       0.025593
 **** Fit       0.023388
 **** Fit       0.020871
 **** Fit       0.018461
 **** Fit       0.016349
 **** Fit       0.014576
 **** Fit       0.013388
 **** Fit       0.014816
 **** Fit       0.016594
 **** Fit       0.018792
 **** Fit       0.021410
 **** Fit       0.024266
 **** Fit       0.026870
 **** Fit       0.028467
 **** Fit       0.028442
 **** Fit       0.026807
 **** Fit       0.024174
 **** Fit       0.021279
 **** Fit       0.018599
 **** Fit       0.016321
 **** Fit       0.014455
 **** Fit       0.013611
 **** Fit       0.015049
 **** Fit       0.016833
 **** Fit       0.019035
 **** Fit       0.021662
 **** Fit       0.024540
 **** Fit       0.027168
 **** Fit       0.028754
 **** Fit       0.028644
 **** Fit       0.026861
 **** Fit       0.024078
 **** Fit       0.021073
 **** Fit       0.018333
 **** Fit       0.016034
 **** Fit       0.014171
 **** Fit       0.012675
 **** Fit       0.013759
 **** Fit       0.015155
 **** Fit       0.016855
 **** Fit       0.018911
 **** Fit       0.021313
 **** Fit       0.023892
 **** Fit       0.026195
 **** Fit       0.027530
 **** Fit       0.027339
 **** Fit       0.025650
 **** Fit       0.023058
 **** Fit       0.020257
 **** Fit       0.017689
 **** Fit       0.015519
 **** Fit       0.013751
 **** Fit       0.015151
 **** Fit       0.016700
 **** Fit       0.018505
 **** Fit       0.020527
 **** Fit       0.022600
 **** Fit       0.024362
 **** Fit       0.025305
 **** Fit       0.025041
 **** Fit       0.023601
 **** Fit       0.021425
 **** Fit       0.019036
 **** Fit       0.016794
 **** Fit       0.014857
 **** Fit       0.013247
 **** Fit       0.015061
 **** Fit       0.016432
 **** Fit       0.017951
 **** Fit       0.019556
 **** Fit       0.021096
 **** Fit       0.022305
 **** Fit       0.022860
 **** Fit       0.022533
 **** Fit       0.021361
 **** Fit       0.019629
 **** Fit       0.017691
 **** Fit       0.015817
 **** Fit       0.014146
 **** Fit       0.012717
 **** Fit       0.014909
 **** Fit       0.016105
 **** Fit       0.017359
 **** Fit       0.018598
 **** Fit       0.019693
 **** Fit       0.020464
 **** Fit       0.020719
 **** Fit       0.020344
 **** Fit       0.019378
 **** Fit       0.017999
 **** Fit       0.016440
 **** Fit       0.014889
 **** Fit       0.013462
 **** Fit       0.015747
 **** Fit       0.016782
 **** Fit       0.017737
 **** Fit       0.018509
 **** Fit       0.018975
 **** Fit       0.019029
 **** Fit       0.018621
 **** Fit       0.017792
 **** Fit       0.016660
 **** Fit       0.015376
 **** Fit       0.014075
 **** Fit       0.012847
 **** Fit       0.016224
 **** Fit       0.016971
 **** Fit       0.017520
 **** Fit       0.017790
 **** Fit       0.017720
 **** Fit       0.017296
 **** Fit       0.016557
 **** Fit       0.015590
 **** Fit       0.014500
 **** Fit       0.013382
 **** Fit       0.016660
 **** Fit       0.016807
 **** Fit       0.016667
 **** Fit       0.016241
 **** Fit       0.015570
 **** Fit       0.014720
 **** Fit       0.015443
 **** Fit       0.016100
 **** Fit       0.016522
 **** Fit       0.016652
 **** Fit       0.016477
 **** Fit       0.016031
 **** Fit       0.014511
 **** Fit       0.015571
 **** Fit       0.016559
 **** Fit       0.017360
 **** Fit       0.017860
 **** Fit       0.017979
 **** Fit       0.017703
 **** Fit       0.017089
 **** Fit       0.016237
 **** Fit       0.015291
 **** Fit       0.016551
 **** Fit       0.017747
 **** Fit       0.018724
 **** Fit       0.019319
 **** Fit       0.019417
 **** Fit       0.019007
 **** Fit       0.018180
 **** Fit       0.017086
 **** Fit       0.015875
 **** Fit       0.014649
 **** Fit       0.016032
 **** Fit       0.017500
 **** Fit       0.018921
 **** Fit       0.020092
 **** Fit       0.020790
 **** Fit       0.020857
 **** Fit       0.020284
 **** Fit       0.019210
 **** Fit       0.017848
 **** Fit       0.016395
 **** Fit       0.014987
 **** Fit       0.013795
 **** Fit       0.015136
 **** Fit       0.016661
 **** Fit       0.018309
 **** Fit       0.019931
 **** Fit       0.021281
 **** Fit       0.022071
 **** Fit       0.022096
 **** Fit       0.021351
 **** Fit       0.020031
 **** Fit       0.018414
 **** Fit       0.016743
 **** Fit       0.015170
 **** Fit       0.014088
 **** Fit       0.015489
 **** Fit       0.017096
 **** Fit       0.018849
 **** Fit       0.020592
 **** Fit       0.022048
 **** Fit       0.022883
 **** Fit       0.022857
 **** Fit       0.021971
 **** Fit       0.020464
 **** Fit       0.018665
 **** Fit       0.016847
 **** Fit       0.015170
 **** Fit       0.013697
 **** Fit       0.014272
 **** Fit       0.015675
 **** Fit       0.017278
 **** Fit       0.019024
 **** Fit       0.020756
 **** Fit       0.022193
 **** Fit       0.022994
 **** Fit       0.022912
 **** Fit       0.021955
 **** Fit       0.020376
 **** Fit       0.018520
 **** Fit       0.016666
 **** Fit       0.014971
 **** Fit       0.013494
 **** Fit       0.014343
 **** Fit       0.015687
 **** Fit       0.017199
 **** Fit       0.018820
 **** Fit       0.020399
 **** Fit       0.021683
 **** Fit       0.022362
 **** Fit       0.022224
 **** Fit       0.021280
 **** Fit       0.019765
 **** Fit       0.017992
 **** Fit       0.016219
 **** Fit       0.014593
 **** Fit       0.013172
 **** Fit       0.014311
 **** Fit       0.015551
 **** Fit       0.016908
 **** Fit       0.018319
 **** Fit       0.019648
 **** Fit       0.020685
 **** Fit       0.021189
 **** Fit       0.020998
 **** Fit       0.020130
 **** Fit       0.018773
 **** Fit       0.017184
 **** Fit       0.015577
 **** Fit       0.014086
 **** Fit       0.015308
 **** Fit       0.016482
 **** Fit       0.017651
 **** Fit       0.018700
 **** Fit       0.019469
 **** Fit       0.019788
 **** Fit       0.019553
 **** Fit       0.018782
 **** Fit       0.017617
 **** Fit       0.016247
 **** Fit       0.014842
 **** Fit       0.013514
 **** Fit       0.014998
 **** Fit       0.015991
 **** Fit       0.016932
 **** Fit       0.017727
 **** Fit       0.018260
 **** Fit       0.018421
 **** Fit       0.018149
 **** Fit       0.017468
 **** Fit       0.016476
 **** Fit       0.015312
 **** Fit       0.014101
 **** Fit       0.015481
 **** Fit       0.016231
 **** Fit       0.016821
 **** Fit       0.017172
 **** Fit       0.017213
 **** Fit       0.016916
 **** Fit       0.016305
 **** Fit       0.015452
 **** Fit       0.014455
 **** Fit       0.013407
 **** Fit       0.016004
 **** Fit       0.016223
 **** Fit       0.016183
 **** Fit       0.015872
 **** Fit       0.015314
 **** Fit       0.014565
 **** Fit       0.015124
 **** Fit       0.015704
 **** Fit       0.016057
 **** Fit       0.016133
 **** Fit       0.015926
 **** Fit       0.015132
 **** Fit       0.015990
 **** Fit       0.016666
 **** Fit       0.017065
 **** Fit       0.017124
 **** Fit       0.016838
 **** Fit       0.016254
 **** Fit       0.015460
 **** Fit       0.014762
 **** Fit       0.015824
 **** Fit       0.016801
 **** Fit       0.017573
 **** Fit       0.018017
 **** Fit       0.018053
 **** Fit       0.017675
 **** Fit       0.016955
 **** Fit       0.016006
 **** Fit       0.014946
 **** Fit       0.015234
 **** Fit       0.016393
 **** Fit       0.017468
 **** Fit       0.018317
 **** Fit       0.018793
 **** Fit       0.018799
 **** Fit       0.018332
 **** Fit       0.017483
 **** Fit       0.016394
 **** Fit       0.015206
 **** Fit       0.014373
 **** Fit       0.015557
 **** Fit       0.016767
 **** Fit       0.017892
 **** Fit       0.018778
 **** Fit       0.019259
 **** Fit       0.019230
 **** Fit       0.018689
 **** Fit       0.017745
 **** Fit       0.016558
 **** Fit       0.015284
 **** Fit       0.014518
 **** Fit       0.015696
 **** Fit       0.016895
 **** Fit       0.018005
 **** Fit       0.018867
 **** Fit       0.019318
 **** Fit       0.019250
 **** Fit       0.018667
 **** Fit       0.017681
 **** Fit       0.016459
 **** Fit       0.015160
 **** Fit       0.013897
 **** Fit       0.014526
 **** Fit       0.015647
 **** Fit       0.016772
 **** Fit       0.017798
 **** Fit       0.018577
 **** Fit       0.018961
 **** Fit       0.018854
 **** Fit       0.018263
 **** Fit       0.017294
 **** Fit       0.016105
 **** Fit       0.014844
 **** Fit       0.013617
 **** Fit       0.015437
 **** Fit       0.016441
 **** Fit       0.017331
 **** Fit       0.017984
 **** Fit       0.018276
 **** Fit       0.018132
 **** Fit       0.017562
 **** Fit       0.016658
 **** Fit       0.015554
 **** Fit       0.014379
 **** Fit       0.015110
 **** Fit       0.015970
 **** Fit       0.016705
 **** Fit       0.017214
 **** Fit       0.017407
 **** Fit       0.017231
 **** Fit       0.016697
 **** Fit       0.015880
 **** Fit       0.014887
 **** Fit       0.013825
 **** Fit       0.015430
 **** Fit       0.016013
 **** Fit       0.016388
 **** Fit       0.016491
 **** Fit       0.016288
 **** Fit       0.015793
 **** Fit       0.015065
 **** Fit       0.014186
 **** Fit       0.015320
 **** Fit       0.015583
 **** Fit       0.015612
 **** Fit       0.015389
 **** Fit       0.014931
 **** Fit       0.014281
 **** Fit       0.015063
 **** Fit       0.015589
 **** Fit       0.015882
 **** Fit       0.015899
 **** Fit       0.015636
 **** Fit       0.015131
 **** Fit       0.015524
 **** Fit       0.016085
 **** Fit       0.016387
 **** Fit       0.016382
 **** Fit       0.016067
 **** Fit       0.015488
 **** Fit       0.015053
 **** Fit       0.015814
 **** Fit       0.016386
 **** Fit       0.016683
 **** Fit       0.016652
 **** Fit       0.016293
 **** Fit       0.015659
 **** Fit       0.014837
 **** Fit       0.015150
 **** Fit       0.015897
 **** Fit       0.016449
 **** Fit       0.016723
 **** Fit       0.016664
 **** Fit       0.016277
 **** Fit       0.015615
 **** Fit       0.014769
 **** Fit       0.015074
 **** Fit       0.015770
 **** Fit       0.016273
 **** Fit       0.016505
 **** Fit       0.016419
 **** Fit       0.016019
 **** Fit       0.015359
 **** Fit       0.014524
 **** Fit       0.014846
 **** Fit       0.015463
 **** Fit       0.015895
 **** Fit       0.016074
 **** Fit       0.015962
 **** Fit       0.015564
 **** Fit       0.014930
 **** Fit       0.015031
 **** Fit       0.015381
 **** Fit       0.015502
 **** Fit       0.015366
 **** Fit       0.014980
 **** Fit       0.014387
 **** Fit       0.014861
 **** Fit       0.014706
 -----------------------------------------------------------------
 Leave Link  602 at Thu Apr 21 11:29:31 2022, MaxMem=   104857600 cpu:               2.8 elap:               2.9
 (Enter /opt/ohpc/pub/libs/gaussian/g16-A.03/haswell/g16/l9999.exe)

 Test job not archived.
 1\1\GINC-CASCADEB019\SP\RB3LYP\6-311++G(d,p)\C11H13N1O2\MNG228\21-Apr-
 2022\0\\#P B3LYP/6-311++G(d,p) Geom=Allcheck SCF=Tight EmpiricalDisper
 sion=GD3BJ Pop=CHELPG SP IOp(6/33=2)\\MAA1-VP1 geo opt\\0,1\C,0,15.281
 8266136,11.5135996858,12.9037177807\C,0,16.6833598068,12.0413626532,13
 .0602619571\C,0,17.5248724778,11.6447710867,14.0144644123\C,0,17.12472
 67427,13.118595955,12.0960360558\O,0,17.4786904467,14.2132996629,12.45
 81711568\O,0,17.0744371574,12.7920801981,10.7967197455\H,0,14.55866667
 86,12.3290812157,13.006502076\H,0,15.0639317677,10.7629788548,13.66579
 68267\H,0,15.1245319506,11.0663376435,11.9195794168\H,0,17.2403428257,
 10.8841829099,14.7342497926\H,0,18.5112786338,12.082269796,14.11128784
 99\H,0,16.9513736494,11.8131692044,10.6537261228\C,0,16.7144078991,5.5
 353499562,7.7396281068\C,0,17.0943940451,6.0415544408,8.9150048886\C,0
 ,17.0119374828,7.4489569486,9.3266913226\C,0,16.5118246696,8.471033127
 3,8.5066796004\C,0,16.4742642774,9.7710952225,8.9842958598\N,0,16.8931
 238681,10.1170669756,10.2101109648\C,0,17.3749065891,9.1510573749,10.9
 993373815\C,0,17.4504004155,7.8220081152,10.6034717291\H,0,16.81712277
 03,4.4776526934,7.5317657467\H,0,16.292443206,6.144239037,6.9484247513
 \H,0,17.5097421405,5.3705438343,9.6619662183\H,0,16.1559688803,8.26479
 19317,7.5058499134\H,0,16.0951255135,10.5774825726,8.3652757305\H,0,17
 .7072033918,9.4627815833,11.9837968178\H,0,17.8500960999,7.0796573208,
 11.2841877753\\Version=ES64L-G16RevA.03\State=1-A\HF=-632.403253\RMSD=
 3.143e-09\Dipole=-0.5604126,-3.4545694,-0.80089\Quadrupole=2.2892263,-
 11.5271415,9.2379151,-5.3858191,1.7399652,-1.6733823\PG=C01 [X(C11H13N
 1O2)]\\@


 MORNING PEOPLE ARE USUALLY ADMIRED AS EARLY BIRDS.
 RECALL BEN FRANKLIN'S APHORISM THAT THE EARLY BIRD GETS THE WORM.
 I IDENTIFY WITH THE WORM. --  CRAIG JAGGER, MINNEAPOLIS, KS.
 Job cpu time:       0 days  0 hours  7 minutes 45.7 seconds.
 Elapsed time:       0 days  0 hours  7 minutes 47.5 seconds.
 File lengths (MBytes):  RWF=    320 Int=      0 D2E=      0 Chk=     32 Scr=     32
 Normal termination of Gaussian 16 at Thu Apr 21 11:29:31 2022.
