 Entering Gaussian System, Link 0=g16
 Initial command:
 /mnt/gpfs3_amd/share/apps/amd/gaussian/g16-A.03/g16/l1.exe "g16_scratch/Gau-852356.inp" -scrdir="g16_scratch/"
 Entering Link 1 = /mnt/gpfs3_amd/share/apps/amd/gaussian/g16-A.03/g16/l1.exe PID=    852357.
  
 Copyright (c) 1988,1990,1992,1993,1995,1998,2003,2009,2016,
            Gaussian, Inc.  All Rights Reserved.
  
 This is part of the Gaussian(R) 16 program.  It is based on
 the Gaussian(R) 09 system (copyright 2009, Gaussian, Inc.),
 the Gaussian(R) 03 system (copyright 2003, Gaussian, Inc.),
 the Gaussian(R) 98 system (copyright 1998, Gaussian, Inc.),
 the Gaussian(R) 94 system (copyright 1995, Gaussian, Inc.),
 the Gaussian 92(TM) system (copyright 1992, Gaussian, Inc.),
 the Gaussian 90(TM) system (copyright 1990, Gaussian, Inc.),
 the Gaussian 88(TM) system (copyright 1988, Gaussian, Inc.),
 the Gaussian 86(TM) system (copyright 1986, Carnegie Mellon
 University), and the Gaussian 82(TM) system (copyright 1983,
 Carnegie Mellon University). Gaussian is a federally registered
 trademark of Gaussian, Inc.
  
 This software contains proprietary and confidential information,
 including trade secrets, belonging to Gaussian, Inc.
  
 This software is provided under written license and may be
 used, copied, transmitted, or stored only in accord with that
 written license.
  
 The following legend is applicable only to US Government
 contracts under FAR:
  
                    RESTRICTED RIGHTS LEGEND
  
 Use, reproduction and disclosure by the US Government is
 subject to restrictions as set forth in subparagraphs (a)
 and (c) of the Commercial Computer Software - Restricted
 Rights clause in FAR 52.227-19.
  
 Gaussian, Inc.
 340 Quinnipiac St., Bldg. 40, Wallingford CT 06492
  
  
 ---------------------------------------------------------------
 Warning -- This program may not be used in any manner that
 competes with the business of Gaussian, Inc. or will provide
 assistance to any competitor of Gaussian, Inc.  The licensee
 of this program is prohibited from giving any competitor of
 Gaussian, Inc. access to this program.  By using this program,
 the user acknowledges that Gaussian, Inc. is engaged in the
 business of creating and licensing software in the field of
 computational chemistry and represents and warrants to the
 licensee that it is not a competitor of Gaussian, Inc. and that
 it will not use this program in any manner prohibited above.
 ---------------------------------------------------------------
  

 Cite this work as:
 Gaussian 16, Revision A.03,
 M. J. Frisch, G. W. Trucks, H. B. Schlegel, G. E. Scuseria, 
 M. A. Robb, J. R. Cheeseman, G. Scalmani, V. Barone, 
 G. A. Petersson, H. Nakatsuji, X. Li, M. Caricato, A. V. Marenich, 
 J. Bloino, B. G. Janesko, R. Gomperts, B. Mennucci, H. P. Hratchian, 
 J. V. Ortiz, A. F. Izmaylov, J. L. Sonnenberg, D. Williams-Young, 
 F. Ding, F. Lipparini, F. Egidi, J. Goings, B. Peng, A. Petrone, 
 T. Henderson, D. Ranasinghe, V. G. Zakrzewski, J. Gao, N. Rega, 
 G. Zheng, W. Liang, M. Hada, M. Ehara, K. Toyota, R. Fukuda, 
 J. Hasegawa, M. Ishida, T. Nakajima, Y. Honda, O. Kitao, H. Nakai, 
 T. Vreven, K. Throssell, J. A. Montgomery, Jr., J. E. Peralta, 
 F. Ogliaro, M. J. Bearpark, J. J. Heyd, E. N. Brothers, K. N. Kudin, 
 V. N. Staroverov, T. A. Keith, R. Kobayashi, J. Normand, 
 K. Raghavachari, A. P. Rendell, J. C. Burant, S. S. Iyengar, 
 J. Tomasi, M. Cossi, J. M. Millam, M. Klene, C. Adamo, R. Cammi, 
 J. W. Ochterski, R. L. Martin, K. Morokuma, O. Farkas, 
 J. B. Foresman, and D. J. Fox, Gaussian, Inc., Wallingford CT, 2016.
 
 ******************************************
 Gaussian 16:  AM64L-G16RevA.03 25-Dec-2016
                12-Jan-2022 
 ******************************************
 %Mem=512GB
 %NProcShared=128
 Will use up to  128 processors via shared memory.
 %Chk=MAA1-VP1-1.chk
 ---------------------------------------------------------------------
 #n B3LYP/6-311++G(d,p) Opt freq EmpiricalDispersion=GD3BJ IOp(6/33=2)
 ---------------------------------------------------------------------
 1/18=20,19=15,26=3,38=1/1,3;
 2/9=110,12=2,17=6,18=5,40=1/2;
 3/5=4,6=6,7=1111,11=2,25=1,30=1,71=1,74=-5,124=41/1,2,3;
 4//1;
 5/5=2,38=5/2;
 6/7=2,8=2,9=2,10=2,28=1,33=2/1;
 7//1,2,3,16;
 1/18=20,19=15,26=3/3(2);
 2/9=110/2;
 99//99;
 2/9=110/2;
 3/5=4,6=6,7=1111,11=2,25=1,30=1,71=1,74=-5,124=41/1,2,3;
 4/5=5,16=3,69=1/1;
 5/5=2,38=5/2;
 7//1,2,3,16;
 1/18=20,19=15,26=3/3(-5);
 2/9=110/2;
 6/7=2,8=2,9=2,10=2,19=2,28=1,33=2/1;
 99/9=1/99;
 ----------------
 MAA1-VP1 geo opt
 ----------------
 Symbolic Z-matrix:
 Charge =  0 Multiplicity = 1
 C                     20.22     11.743    12.583 
 C                     21.036    10.506    12.587 
 C                     21.952    10.238    13.534 
 C                     20.854    9.623     11.445 
 O                     21.183    9.849     10.281 
 O                     20.193    8.419     11.665 
 H                     20.562    12.325    11.727 
 H                     20.403    12.452    13.39 
 H                     19.17     11.485    12.445 
 H                     22.176    10.748    14.459 
 H                     22.458    9.297     13.371 
 H                     19.793    8.314     12.515 
 C                     19.802    6.391     19.126 
 C                     19.234    5.788     18.062 
 C                     19.22     6.568     16.832 
 C                     19.101    7.989     16.844 
 C                     19.104    8.62      15.649 
 N                     19.143    7.969     14.477 
 C                     19.168    6.588     14.405 
 C                     19.306    5.909     15.579 
 H                     19.821    5.831     20.049 
 H                     20.394    7.292     19.183 
 H                     18.822    4.799     18.2 
 H                     19.017    8.584     17.741 
 H                     19.133    9.698     15.609 
 H                     19.134    6.2       13.398 
 H                     19.346    4.83      15.544 
 
 Add virtual bond connecting atoms N18        and H12        Dist= 3.96D+00.

 GradGradGradGradGradGradGradGradGradGradGradGradGradGradGradGradGradGrad
 Berny optimization.
 Initialization pass.
                           ----------------------------
                           !    Initial Parameters    !
                           ! (Angstroms and Degrees)  !
 --------------------------                            --------------------------
 ! Name  Definition              Value          Derivative Info.                !
 --------------------------------------------------------------------------------
 ! R1    R(1,2)                  1.4819         estimate D2E/DX2                !
 ! R2    R(1,7)                  1.0901         estimate D2E/DX2                !
 ! R3    R(1,8)                  1.0897         estimate D2E/DX2                !
 ! R4    R(1,9)                  1.09           estimate D2E/DX2                !
 ! R5    R(2,3)                  1.3445         estimate D2E/DX2                !
 ! R6    R(2,4)                  1.455          estimate D2E/DX2                !
 ! R7    R(3,10)                 1.0798         estimate D2E/DX2                !
 ! R8    R(3,11)                 1.0808         estimate D2E/DX2                !
 ! R9    R(4,5)                  1.2305         estimate D2E/DX2                !
 ! R10   R(4,6)                  1.391          estimate D2E/DX2                !
 ! R11   R(6,12)                 0.9453         estimate D2E/DX2                !
 ! R12   R(12,18)                2.0955         estimate D2E/DX2                !
 ! R13   R(13,14)                1.3485         estimate D2E/DX2                !
 ! R14   R(13,21)                1.0798         estimate D2E/DX2                !
 ! R15   R(13,22)                1.0796         estimate D2E/DX2                !
 ! R16   R(14,15)                1.4565         estimate D2E/DX2                !
 ! R17   R(14,23)                1.0802         estimate D2E/DX2                !
 ! R18   R(15,16)                1.426          estimate D2E/DX2                !
 ! R19   R(15,20)                1.4183         estimate D2E/DX2                !
 ! R20   R(16,17)                1.3514         estimate D2E/DX2                !
 ! R21   R(16,24)                1.0797         estimate D2E/DX2                !
 ! R22   R(17,18)                1.3412         estimate D2E/DX2                !
 ! R23   R(17,25)                1.0791         estimate D2E/DX2                !
 ! R24   R(18,19)                1.3831         estimate D2E/DX2                !
 ! R25   R(19,20)                1.3632         estimate D2E/DX2                !
 ! R26   R(19,26)                1.0797         estimate D2E/DX2                !
 ! R27   R(20,27)                1.0803         estimate D2E/DX2                !
 ! A1    A(2,1,7)              105.9629         estimate D2E/DX2                !
 ! A2    A(2,1,8)              116.6568         estimate D2E/DX2                !
 ! A3    A(2,1,9)              109.4629         estimate D2E/DX2                !
 ! A4    A(7,1,8)              100.4552         estimate D2E/DX2                !
 ! A5    A(7,1,9)              109.2177         estimate D2E/DX2                !
 ! A6    A(8,1,9)              114.176          estimate D2E/DX2                !
 ! A7    A(1,2,3)              122.918          estimate D2E/DX2                !
 ! A8    A(1,2,4)              115.8227         estimate D2E/DX2                !
 ! A9    A(3,2,4)              121.1371         estimate D2E/DX2                !
 ! A10   A(2,3,10)             130.5852         estimate D2E/DX2                !
 ! A11   A(2,3,11)             112.7239         estimate D2E/DX2                !
 ! A12   A(10,3,11)            116.3153         estimate D2E/DX2                !
 ! A13   A(2,4,5)              126.6944         estimate D2E/DX2                !
 ! A14   A(2,4,6)              117.4252         estimate D2E/DX2                !
 ! A15   A(5,4,6)              115.8249         estimate D2E/DX2                !
 ! A16   A(4,6,12)             116.0686         estimate D2E/DX2                !
 ! A17   A(14,13,21)           116.7427         estimate D2E/DX2                !
 ! A18   A(14,13,22)           130.2291         estimate D2E/DX2                !
 ! A19   A(21,13,22)           112.2133         estimate D2E/DX2                !
 ! A20   A(13,14,15)           115.5251         estimate D2E/DX2                !
 ! A21   A(13,14,23)           117.9865         estimate D2E/DX2                !
 ! A22   A(15,14,23)           126.4772         estimate D2E/DX2                !
 ! A23   A(14,15,16)           121.825          estimate D2E/DX2                !
 ! A24   A(14,15,20)           119.7772         estimate D2E/DX2                !
 ! A25   A(16,15,20)           118.3909         estimate D2E/DX2                !
 ! A26   A(15,16,17)           117.2364         estimate D2E/DX2                !
 ! A27   A(15,16,24)           124.2383         estimate D2E/DX2                !
 ! A28   A(17,16,24)           118.5238         estimate D2E/DX2                !
 ! A29   A(16,17,18)           123.1025         estimate D2E/DX2                !
 ! A30   A(16,17,25)           119.9525         estimate D2E/DX2                !
 ! A31   A(18,17,25)           116.8524         estimate D2E/DX2                !
 ! A32   A(12,18,17)           138.3548         estimate D2E/DX2                !
 ! A33   A(12,18,19)            96.3178         estimate D2E/DX2                !
 ! A34   A(17,18,19)           122.0494         estimate D2E/DX2                !
 ! A35   A(18,19,20)           117.0217         estimate D2E/DX2                !
 ! A36   A(18,19,26)           114.0037         estimate D2E/DX2                !
 ! A37   A(20,19,26)           128.8591         estimate D2E/DX2                !
 ! A38   A(15,20,19)           121.5501         estimate D2E/DX2                !
 ! A39   A(15,20,27)           119.6653         estimate D2E/DX2                !
 ! A40   A(19,20,27)           118.2507         estimate D2E/DX2                !
 ! A41   L(6,12,18,1,-1)       182.2336         estimate D2E/DX2                !
 ! A42   L(6,12,18,1,-2)       187.2343         estimate D2E/DX2                !
 ! D1    D(7,1,2,3)            111.538          estimate D2E/DX2                !
 ! D2    D(7,1,2,4)            -64.4794         estimate D2E/DX2                !
 ! D3    D(8,1,2,3)              0.7576         estimate D2E/DX2                !
 ! D4    D(8,1,2,4)           -175.2598         estimate D2E/DX2                !
 ! D5    D(9,1,2,3)           -130.8039         estimate D2E/DX2                !
 ! D6    D(9,1,2,4)             53.1787         estimate D2E/DX2                !
 ! D7    D(1,2,3,10)             8.0231         estimate D2E/DX2                !
 ! D8    D(1,2,3,11)          -179.3972         estimate D2E/DX2                !
 ! D9    D(4,2,3,10)          -176.1655         estimate D2E/DX2                !
 ! D10   D(4,2,3,11)            -3.5858         estimate D2E/DX2                !
 ! D11   D(1,2,4,5)             68.1246         estimate D2E/DX2                !
 ! D12   D(1,2,4,6)           -109.0397         estimate D2E/DX2                !
 ! D13   D(3,2,4,5)           -107.9697         estimate D2E/DX2                !
 ! D14   D(3,2,4,6)             74.866          estimate D2E/DX2                !
 ! D15   D(2,4,6,12)             8.8385         estimate D2E/DX2                !
 ! D16   D(5,4,6,12)          -168.6357         estimate D2E/DX2                !
 ! D17   D(4,6,18,17)            0.9295         estimate D2E/DX2                !
 ! D18   D(4,6,18,19)         -154.3552         estimate D2E/DX2                !
 ! D19   D(21,13,14,15)        179.8672         estimate D2E/DX2                !
 ! D20   D(21,13,14,23)          1.0055         estimate D2E/DX2                !
 ! D21   D(22,13,14,15)        -11.3943         estimate D2E/DX2                !
 ! D22   D(22,13,14,23)        169.7439         estimate D2E/DX2                !
 ! D23   D(13,14,15,16)        -32.8233         estimate D2E/DX2                !
 ! D24   D(13,14,15,20)        148.1479         estimate D2E/DX2                !
 ! D25   D(23,14,15,16)        145.9267         estimate D2E/DX2                !
 ! D26   D(23,14,15,20)        -33.1021         estimate D2E/DX2                !
 ! D27   D(14,15,16,17)        179.7138         estimate D2E/DX2                !
 ! D28   D(14,15,16,24)          0.1819         estimate D2E/DX2                !
 ! D29   D(20,15,16,17)         -1.2444         estimate D2E/DX2                !
 ! D30   D(20,15,16,24)        179.2236         estimate D2E/DX2                !
 ! D31   D(14,15,20,19)        173.6354         estimate D2E/DX2                !
 ! D32   D(14,15,20,27)          2.1645         estimate D2E/DX2                !
 ! D33   D(16,15,20,19)         -5.4265         estimate D2E/DX2                !
 ! D34   D(16,15,20,27)       -176.8974         estimate D2E/DX2                !
 ! D35   D(15,16,17,18)          3.5449         estimate D2E/DX2                !
 ! D36   D(15,16,17,25)       -172.8448         estimate D2E/DX2                !
 ! D37   D(24,16,17,18)       -176.8955         estimate D2E/DX2                !
 ! D38   D(24,16,17,25)          6.7148         estimate D2E/DX2                !
 ! D39   D(16,17,18,12)       -153.3256         estimate D2E/DX2                !
 ! D40   D(16,17,18,19)          0.7559         estimate D2E/DX2                !
 ! D41   D(25,17,18,12)         23.1683         estimate D2E/DX2                !
 ! D42   D(25,17,18,19)        177.2498         estimate D2E/DX2                !
 ! D43   D(12,18,19,20)        155.6964         estimate D2E/DX2                !
 ! D44   D(12,18,19,26)        -20.7464         estimate D2E/DX2                !
 ! D45   D(17,18,19,20)         -7.3122         estimate D2E/DX2                !
 ! D46   D(17,18,19,26)        176.2451         estimate D2E/DX2                !
 ! D47   D(18,19,20,15)          9.5057         estimate D2E/DX2                !
 ! D48   D(18,19,20,27)       -178.9069         estimate D2E/DX2                !
 ! D49   D(26,19,20,15)       -174.6685         estimate D2E/DX2                !
 ! D50   D(26,19,20,27)         -3.081          estimate D2E/DX2                !
 --------------------------------------------------------------------------------
 Trust Radius=3.00D-01 FncErr=1.00D-07 GrdErr=1.00D-06 EigMax=2.50D+02 EigMin=1.00D-04
 Number of steps in this run=    129 maximum allowed number of steps=    162.
 GradGradGradGradGradGradGradGradGradGradGradGradGradGradGradGradGradGrad

                          Input orientation:                          
 ---------------------------------------------------------------------
 Center     Atomic      Atomic             Coordinates (Angstroms)
 Number     Number       Type             X           Y           Z
 ---------------------------------------------------------------------
      1          6           0       20.220000   11.743000   12.583000
      2          6           0       21.036000   10.506000   12.587000
      3          6           0       21.952000   10.238000   13.534000
      4          6           0       20.854000    9.623000   11.445000
      5          8           0       21.183000    9.849000   10.281000
      6          8           0       20.193000    8.419000   11.665000
      7          1           0       20.562000   12.325000   11.727000
      8          1           0       20.403000   12.452000   13.390000
      9          1           0       19.170000   11.485000   12.445000
     10          1           0       22.176000   10.748000   14.459000
     11          1           0       22.458000    9.297000   13.371000
     12          1           0       19.793000    8.314000   12.515000
     13          6           0       19.802000    6.391000   19.126000
     14          6           0       19.234000    5.788000   18.062000
     15          6           0       19.220000    6.568000   16.832000
     16          6           0       19.101000    7.989000   16.844000
     17          6           0       19.104000    8.620000   15.649000
     18          7           0       19.143000    7.969000   14.477000
     19          6           0       19.168000    6.588000   14.405000
     20          6           0       19.306000    5.909000   15.579000
     21          1           0       19.821000    5.831000   20.049000
     22          1           0       20.394000    7.292000   19.183000
     23          1           0       18.822000    4.799000   18.200000
     24          1           0       19.017000    8.584000   17.741000
     25          1           0       19.133000    9.698000   15.609000
     26          1           0       19.134000    6.200000   13.398000
     27          1           0       19.346000    4.830000   15.544000
 ---------------------------------------------------------------------
                    Distance matrix (angstroms):
                    1          2          3          4          5
     1  C    0.000000
     2  C    1.481905   0.000000
     3  C    2.483797   1.344503   0.000000
     4  C    2.488252   1.454984   2.438801   0.000000
     5  O    3.132700   2.402269   3.365218   1.230534   0.000000
     6  O    3.448540   2.432345   3.145791   1.391020   2.222714
     7  H    1.090149   2.067133   3.090780   2.732324   2.933792
     8  H    1.089688   2.198275   2.705907   3.462610   4.129151
     9  H    1.090004   2.112004   3.237353   2.702388   3.378100
    10  H    2.887098   2.205119   1.079769   3.478147   4.387475
    11  H    3.407712   2.024456   1.080780   2.527562   3.387983
    12  H    3.456153   2.520932   3.066173   1.996022   3.046158
    13  C    8.463420   7.823970   7.119858   8.399422   9.596820
    14  C    8.151912   7.448648   6.905998   7.817692   8.990789
    15  C    6.770127   6.068420   5.639994   6.404900   7.585112
    16  C    5.787987   5.310514   4.913482   5.906959   7.132131
    17  C    4.516519   4.082336   3.899007   4.662845   5.886264
    18  N    4.357779   3.686722   3.732036   3.854382   5.030151
    19  C    5.567801   4.705876   4.672451   4.562392   5.630428
    20  C    6.621704   5.751293   5.470245   5.768887   6.864076
    21  H    9.531637   8.888942   8.149113   9.459132  10.649563
    22  H    7.962517   7.365404   6.558771   8.094554   9.295503
    23  H    9.040145   8.305264   7.819922   8.545761   9.684389
    24  H    6.166965   5.859536   5.389693   6.640309   7.870412
    25  H    3.810547   3.661524   3.541749   4.506258   5.710769
    26  H    5.706879   4.776710   4.925958   4.299946   5.218169
    27  H    7.571061   6.619435   6.330703   6.484498   7.500940
                    6          7          8          9         10
     6  O    0.000000
     7  H    3.923881   0.000000
     8  H    4.391448   1.675404   0.000000
     9  H    3.324949   1.777298   1.829864   0.000000
    10  H    4.142821   3.543409   2.681400   3.692614   0.000000
    11  H    2.968425   3.932726   3.765290   4.056570   1.835393
    12  H    0.945265   4.159378   4.273262   3.232378   3.922012
    13  C    7.741588   9.514996   8.366518   8.425202   6.811770
    14  C    6.983083   9.199357   8.222107   8.000662   6.799895
    15  C    5.574120   7.810572   6.918693   6.589777   5.642824
    16  C    5.310311   6.864336   5.791691   5.619429   4.770318
    17  C    4.135043   5.588817   4.634081   4.298627   3.921947
    18  N    3.035184   5.343295   4.781889   4.061035   4.113667
    19  C    3.451201   6.482907   6.077989   5.274677   5.133866
    20  C    4.733526   7.588181   6.986128   6.397830   5.736482
    21  H    8.782231  10.581909   9.408435   9.498017   7.808394
    22  H    7.604660   8.997291   7.757869   8.029948   6.118467
    23  H    7.595411  10.078095   9.176278   8.828574   7.786848
    24  H    6.190959   7.249159   5.984448   6.040433   5.043184
    25  H    4.279553   4.900316   3.757842   3.633956   3.418311
    26  H    3.008111   6.507461   6.379493   5.370357   5.573490
    27  H    5.352100   8.498422   7.990735   7.343283   6.648974
                   11         12         13         14         15
    11  H    0.000000
    12  H    2.966690   0.000000
    13  C    6.972747   6.885008   0.000000
    14  C    6.686758   6.120651   1.348454   0.000000
    15  C    5.469059   4.691837   2.373287   1.456536   0.000000
    16  C    5.004202   4.395990   2.872722   2.519050   1.426025
    17  C    4.110587   3.223401   4.188696   3.722861   2.371423
    18  N    3.738455   2.095464   4.953541   4.197293   2.741305
    19  C    4.385423   2.634730   4.767453   3.744063   2.427639
    20  C    5.127271   3.925467   3.613800   2.486989   1.418339
    21  H    7.972616   7.932668   1.079764   2.072339   3.354618
    22  H    6.485327   6.772585   1.079590   2.205506   2.725739
    23  H    7.534702   6.754057   2.086226   1.080236   2.271385
    24  H    5.607651   5.290194   2.709926   2.822720   2.220753
    25  H    4.028036   3.453099   4.873715   4.616872   3.361577
    26  H    4.543249   2.383897   5.769982   4.683230   3.454732
    27  H    5.861788   4.638201   3.933876   2.696411   2.166902
                   16         17         18         19         20
    16  C    0.000000
    17  C    1.351368   0.000000
    18  N    2.367457   1.341233   0.000000
    19  C    2.813541   2.383413   1.383102   0.000000
    20  C    2.443082   2.719416   2.341917   1.363217   0.000000
    21  H    3.930317   5.258575   6.006489   5.731858   4.500245
    22  H    2.761988   3.989591   4.916276   4.982768   4.010642
    23  H    3.477453   4.602952   4.900272   4.209782   2.887213
    24  H    1.079671   2.094118   3.323823   3.890464   3.451578
    25  H    2.108775   1.079132   2.066631   3.335107   3.793066
    26  H    3.882850   3.305193   2.072120   1.079699   2.207040
    27  H    3.424807   3.799170   3.321599   2.102277   1.080308
                   21         22         23         24         25
    21  H    0.000000
    22  H    1.792430   0.000000
    23  H    2.341330   3.106851   0.000000
    24  H    3.681343   2.375870   3.817713   0.000000
    25  H    5.927954   4.489146   5.550694   2.408293   0.000000
    26  H    6.696561   6.020489   5.011921   4.955683   4.138179
    27  H    4.639251   4.516865   2.707374   4.362060   4.873091
                   26         27
    26  H    0.000000
    27  H    2.554831   0.000000
 Stoichiometry    C11H13NO2
 Framework group  C1[X(C11H13NO2)]
 Deg. of freedom    75
 Full point group                 C1      NOp   1
 Largest Abelian subgroup         C1      NOp   1
 Largest concise Abelian subgroup C1      NOp   1
                         Standard orientation:                         
 ---------------------------------------------------------------------
 Center     Atomic      Atomic             Coordinates (Angstroms)
 Number     Number       Type             X           Y           Z
 ---------------------------------------------------------------------
      1          6           0        3.380013    1.674479   -0.846770
      2          6           0        2.892488    0.840097    0.276691
      3          6           0        2.171359    1.337234    1.296748
      4          6           0        3.317179   -0.551463    0.263469
      5          8           0        4.460849   -0.972850    0.432781
      6          8           0        2.353314   -1.512801   -0.022416
      7          1           0        4.464224    1.715911   -0.740969
      8          1           0        3.136911    2.736022   -0.808729
      9          1           0        3.129915    1.192844   -1.792067
     10          1           0        1.734406    2.314567    1.437437
     11          1           0        1.911730    0.586345    2.029445
     12          1           0        1.515861   -1.186977   -0.315735
     13          6           0       -4.917370    1.046374    0.698671
     14          6           0       -4.490123   -0.149012    0.243873
     15          6           0       -3.070746   -0.229124   -0.073064
     16          6           0       -2.348543    0.892049   -0.577980
     17          6           0       -1.033593    0.715898   -0.835029
     18          7           0       -0.413208   -0.465826   -0.702522
     19          6           0       -1.085173   -1.606816   -0.303054
     20          6           0       -2.378249   -1.454636    0.100873
     21          1           0       -5.967158    1.128331    0.937666
     22          1           0       -4.356537    1.910388    1.021871
     23          1           0       -5.218791   -0.938520    0.131503
     24          1           0       -2.783407    1.863741   -0.757973
     25          1           0       -0.419918    1.560772   -1.107269
     26          1           0       -0.475274   -2.497753   -0.301148
     27          1           0       -2.916265   -2.330160    0.434132
 ---------------------------------------------------------------------
 Rotational constants (GHZ):           1.5516413           0.2709451           0.2477123
 Standard basis: 6-311++G(d,p) (5D, 7F)
 There are   413 symmetry adapted cartesian basis functions of A   symmetry.
 There are   399 symmetry adapted basis functions of A   symmetry.
   399 basis functions,   621 primitive gaussians,   413 cartesian basis functions
    51 alpha electrons       51 beta electrons
       nuclear repulsion energy       800.7760826923 Hartrees.
 NAtoms=   27 NActive=   27 NUniq=   27 SFac= 1.00D+00 NAtFMM=   60 NAOKFM=F Big=F
 Integral buffers will be    131072 words long.
 Raffenetti 2 integral format.
 Two-electron integral symmetry is turned on.
 Nuclear repulsion after empirical dispersion term =      800.7294457871 Hartrees.
 One-electron integrals computed using PRISM.
 NBasis=   399 RedAO= T EigKep=  2.73D-06  NBF=   399
 NBsUse=   399 1.00D-06 EigRej= -1.00D+00 NBFU=   399
 ExpMin= 3.60D-02 ExpMax= 8.59D+03 ExpMxC= 1.30D+03 IAcc=3 IRadAn=         5 AccDes= 0.00D+00
 Harris functional with IExCor=  402 and IRadAn=       5 diagonalized for initial guess.
 HarFok:  IExCor=  402 AccDes= 0.00D+00 IRadAn=         5 IDoV= 1 UseB2=F ITyADJ=14
 ICtDFT=  3500011 ScaDFX=  1.000000  1.000000  1.000000  1.000000
 FoFCou: FMM=F IPFlag=           0 FMFlag=      100000 FMFlg1=           0
         NFxFlg=           0 DoJE=T BraDBF=F KetDBF=T FulRan=T
         wScrn=  0.000000 ICntrl=       500 IOpCl=  0 I1Cent=   200000004 NGrid=           0
         NMat0=    1 NMatS0=      1 NMatT0=    0 NMatD0=    1 NMtDS0=    0 NMtDT0=    0
 Petite list used in FoFCou.
 Requested convergence on RMS density matrix=1.00D-08 within 128 cycles.
 Requested convergence on MAX density matrix=1.00D-06.
 Requested convergence on             energy=1.00D-06.
 No special actions if energy rises.
 SCF Done:  E(RB3LYP) =  -632.362603047     A.U. after   15 cycles
            NFock= 15  Conv=0.88D-08     -V/T= 2.0042
 SCF density gives NOpUse=  1 NOpAll=  1.

 **********************************************************************

            Population analysis using the SCF density.

 **********************************************************************

 Orbital symmetries:
 BldTbl:  Degeneracy threshold= 1.00D-02
       Occupied  (A) (A) (A) (A) (A) (A) (A) (A) (A) (A) (A) (A)
                 (A) (A) (A) (A) (A) (A) (A) (A) (A) (A) (A) (A)
                 (A) (A) (A) (A) (A) (A) (A) (A) (A) (A) (A) (A)
                 (A) (A) (A) (A) (A) (A) (A) (A) (A) (A) (A) (A)
                 (A) (A) (A)
       Virtual   (A) (A) (A) (A) (A) (A) (A) (A) (A) (A) (A) (A)
                 (A) (A) (A) (A) (A) (A) (A) (A) (A) (A) (A) (A)
                 (A) (A) (A) (A) (A) (A) (A) (A) (A) (A) (A) (A)
                 (A) (A) (A) (A) (A) (A) (A) (A) (A) (A) (A) (A)
                 (A) (A) (A) (A) (A) (A) (A) (A) (A) (A) (A) (A)
                 (A) (A) (A) (A) (A) (A) (A) (A) (A) (A) (A) (A)
                 (A) (A) (A) (A) (A) (A) (A) (A) (A) (A) (A) (A)
                 (A) (A) (A) (A) (A) (A) (A) (A) (A) (A) (A) (A)
                 (A) (A) (A) (A) (A) (A) (A) (A) (A) (A) (A) (A)
                 (A) (A) (A) (A) (A) (A) (A) (A) (A) (A) (A) (A)
                 (A) (A) (A) (A) (A) (A) (A) (A) (A) (A) (A) (A)
                 (A) (A) (A) (A) (A) (A) (A) (A) (A) (A) (A) (A)
                 (A) (A) (A) (A) (A) (A) (A) (A) (A) (A) (A) (A)
                 (A) (A) (A) (A) (A) (A) (A) (A) (A) (A) (A) (A)
                 (A) (A) (A) (A) (A) (A) (A) (A) (A) (A) (A) (A)
                 (A) (A) (A) (A) (A) (A) (A) (A) (A) (A) (A) (A)
                 (A) (A) (A) (A) (A) (A) (A) (A) (A) (A) (A) (A)
                 (A) (A) (A) (A) (A) (A) (A) (A) (A) (A) (A) (A)
                 (A) (A) (A) (A) (A) (A) (A) (A) (A) (A) (A) (A)
                 (A) (A) (A) (A) (A) (A) (A) (A) (A) (A) (A) (A)
                 (A) (A) (A) (A) (A) (A) (A) (A) (A) (A) (A) (A)
                 (A) (A) (A) (A) (A) (A) (A) (A) (A) (A) (A) (A)
                 (A) (A) (A) (A) (A) (A) (A) (A) (A) (A) (A) (A)
                 (A) (A) (A) (A) (A) (A) (A) (A) (A) (A) (A) (A)
                 (A) (A) (A) (A) (A) (A) (A) (A) (A) (A) (A) (A)
                 (A) (A) (A) (A) (A) (A) (A) (A) (A) (A) (A) (A)
                 (A) (A) (A) (A) (A) (A) (A) (A) (A) (A) (A) (A)
                 (A) (A) (A) (A) (A) (A) (A) (A) (A) (A) (A) (A)
                 (A) (A) (A) (A) (A) (A) (A) (A) (A) (A) (A) (A)
 The electronic state is 1-A.
 Alpha  occ. eigenvalues --  -19.14546 -19.10653 -14.33223 -10.30432 -10.23276
 Alpha  occ. eigenvalues --  -10.22910 -10.22526 -10.20980 -10.20347 -10.20259
 Alpha  occ. eigenvalues --  -10.20207 -10.19702 -10.17890 -10.17586  -1.08082
 Alpha  occ. eigenvalues --   -1.00210  -0.95836  -0.85323  -0.82552  -0.79735
 Alpha  occ. eigenvalues --   -0.77670  -0.70854  -0.67142  -0.65101  -0.64687
 Alpha  occ. eigenvalues --   -0.60140  -0.59050  -0.54506  -0.51541  -0.50045
 Alpha  occ. eigenvalues --   -0.49570  -0.47585  -0.47430  -0.46001  -0.45264
 Alpha  occ. eigenvalues --   -0.44469  -0.42661  -0.42204  -0.41912  -0.40774
 Alpha  occ. eigenvalues --   -0.39237  -0.38677  -0.37050  -0.36265  -0.33616
 Alpha  occ. eigenvalues --   -0.31018  -0.29811  -0.28779  -0.27799  -0.26983
 Alpha  occ. eigenvalues --   -0.26321
 Alpha virt. eigenvalues --   -0.08223  -0.04017  -0.03033  -0.01785  -0.01458
 Alpha virt. eigenvalues --   -0.00669  -0.00169   0.00124   0.00913   0.01393
 Alpha virt. eigenvalues --    0.01849   0.02736   0.03379   0.03799   0.04189
 Alpha virt. eigenvalues --    0.04839   0.05628   0.05874   0.06193   0.06310
 Alpha virt. eigenvalues --    0.07133   0.07964   0.08319   0.08484   0.09344
 Alpha virt. eigenvalues --    0.09539   0.09961   0.10225   0.10540   0.10613
 Alpha virt. eigenvalues --    0.11006   0.11219   0.12105   0.12178   0.12561
 Alpha virt. eigenvalues --    0.12964   0.13162   0.13597   0.13734   0.14081
 Alpha virt. eigenvalues --    0.14287   0.14630   0.14891   0.15079   0.15299
 Alpha virt. eigenvalues --    0.15868   0.16278   0.16520   0.17004   0.17488
 Alpha virt. eigenvalues --    0.17753   0.18374   0.18542   0.19067   0.19633
 Alpha virt. eigenvalues --    0.19784   0.20444   0.20696   0.21073   0.21631
 Alpha virt. eigenvalues --    0.21799   0.22798   0.23156   0.23444   0.24088
 Alpha virt. eigenvalues --    0.24562   0.24799   0.25088   0.25421   0.26066
 Alpha virt. eigenvalues --    0.26916   0.27330   0.27847   0.28187   0.28700
 Alpha virt. eigenvalues --    0.29337   0.29985   0.30631   0.30974   0.31328
 Alpha virt. eigenvalues --    0.31626   0.32326   0.32871   0.34004   0.34414
 Alpha virt. eigenvalues --    0.34752   0.35051   0.35833   0.36003   0.36429
 Alpha virt. eigenvalues --    0.37063   0.37648   0.38784   0.39686   0.40372
 Alpha virt. eigenvalues --    0.41770   0.42436   0.42873   0.46582   0.48174
 Alpha virt. eigenvalues --    0.48781   0.48940   0.50694   0.51323   0.52373
 Alpha virt. eigenvalues --    0.53066   0.54056   0.54598   0.55833   0.56651
 Alpha virt. eigenvalues --    0.57289   0.57768   0.58449   0.58724   0.60553
 Alpha virt. eigenvalues --    0.60893   0.61743   0.62379   0.64245   0.64444
 Alpha virt. eigenvalues --    0.65467   0.65938   0.66351   0.67042   0.67266
 Alpha virt. eigenvalues --    0.67706   0.68078   0.68966   0.69978   0.71522
 Alpha virt. eigenvalues --    0.72357   0.72880   0.73312   0.74180   0.74689
 Alpha virt. eigenvalues --    0.75077   0.75930   0.76153   0.76837   0.78139
 Alpha virt. eigenvalues --    0.79270   0.80152   0.81006   0.82976   0.84172
 Alpha virt. eigenvalues --    0.85421   0.87664   0.87899   0.88038   0.88909
 Alpha virt. eigenvalues --    0.89082   0.91400   0.92393   0.93338   0.94353
 Alpha virt. eigenvalues --    0.95913   0.96776   0.98852   1.01529   1.03808
 Alpha virt. eigenvalues --    1.04216   1.05802   1.06837   1.08003   1.11000
 Alpha virt. eigenvalues --    1.11545   1.12487   1.13276   1.14722   1.16675
 Alpha virt. eigenvalues --    1.17690   1.19277   1.20539   1.23114   1.25214
 Alpha virt. eigenvalues --    1.27201   1.29151   1.30950   1.34287   1.36588
 Alpha virt. eigenvalues --    1.37438   1.41910   1.43174   1.44277   1.44918
 Alpha virt. eigenvalues --    1.45238   1.45806   1.47669   1.48863   1.49260
 Alpha virt. eigenvalues --    1.51905   1.52338   1.53141   1.54713   1.56089
 Alpha virt. eigenvalues --    1.56823   1.58113   1.58580   1.59048   1.59730
 Alpha virt. eigenvalues --    1.60609   1.63015   1.64328   1.65672   1.68058
 Alpha virt. eigenvalues --    1.68150   1.70483   1.70955   1.72450   1.73225
 Alpha virt. eigenvalues --    1.75098   1.75995   1.77390   1.77428   1.78049
 Alpha virt. eigenvalues --    1.79914   1.82184   1.82672   1.84167   1.86445
 Alpha virt. eigenvalues --    1.87537   1.89032   1.91665   1.92601   1.93190
 Alpha virt. eigenvalues --    1.94256   1.96906   1.99831   2.00779   2.03573
 Alpha virt. eigenvalues --    2.03874   2.04985   2.05417   2.09335   2.09840
 Alpha virt. eigenvalues --    2.11770   2.13056   2.13637   2.18320   2.20001
 Alpha virt. eigenvalues --    2.21335   2.23949   2.24363   2.29334   2.30638
 Alpha virt. eigenvalues --    2.33033   2.34944   2.35564   2.36498   2.39566
 Alpha virt. eigenvalues --    2.43423   2.44418   2.45667   2.48798   2.50113
 Alpha virt. eigenvalues --    2.54569   2.54691   2.57219   2.57468   2.59440
 Alpha virt. eigenvalues --    2.60709   2.61017   2.61957   2.64932   2.66598
 Alpha virt. eigenvalues --    2.68684   2.69266   2.70347   2.71170   2.71763
 Alpha virt. eigenvalues --    2.73488   2.75449   2.76458   2.77742   2.78816
 Alpha virt. eigenvalues --    2.79724   2.80256   2.82094   2.83368   2.85203
 Alpha virt. eigenvalues --    2.86478   2.87935   2.91364   2.92791   2.93259
 Alpha virt. eigenvalues --    2.93579   2.95324   2.96749   2.97503   2.99620
 Alpha virt. eigenvalues --    3.00164   3.02504   3.04416   3.10357   3.14953
 Alpha virt. eigenvalues --    3.16989   3.18903   3.23285   3.23996   3.26283
 Alpha virt. eigenvalues --    3.34132   3.37708   3.41253   3.46080   3.46271
 Alpha virt. eigenvalues --    3.52806   3.53958   3.56730   3.63000   3.64947
 Alpha virt. eigenvalues --    3.72883   3.74823   3.76779   3.77943   3.82477
 Alpha virt. eigenvalues --    3.89581   3.93330   3.96590   3.99758   4.03163
 Alpha virt. eigenvalues --    4.07678   4.08285   4.20221   4.33446   4.34074
 Alpha virt. eigenvalues --    4.39141   4.48023   5.01745   5.08660   5.18317
 Alpha virt. eigenvalues --    5.20860   5.33881   5.63787   5.91386  23.64002
 Alpha virt. eigenvalues --   23.71914  23.82925  23.86220  23.86933  23.94168
 Alpha virt. eigenvalues --   23.98813  24.14137  24.18541  24.19401  24.22713
 Alpha virt. eigenvalues --   35.60767  49.90742  49.99214
          Condensed to atoms (all electrons):
               1          2          3          4          5          6
     1  C    6.858457  -0.388572  -0.264538  -0.928724   0.056332   0.031177
     2  C   -0.388572   6.314437  -0.291433  -0.268300  -0.059039  -0.035611
     3  C   -0.264538  -0.291433   6.611644  -0.293738   0.065399   0.024360
     4  C   -0.928724  -0.268300  -0.293738   7.860856   0.238689  -0.093639
     5  O    0.056332  -0.059039   0.065399   0.238689   8.031917  -0.110104
     6  O    0.031177  -0.035611   0.024360  -0.093639  -0.110104   8.162016
     7  H    0.425203  -0.031813  -0.017883  -0.018819   0.001937   0.002118
     8  H    0.416769  -0.082164   0.031912  -0.020012  -0.000117  -0.000443
     9  H    0.355070  -0.029599  -0.019509   0.039661  -0.001240  -0.002309
    10  H   -0.052635  -0.003622   0.370926   0.071671  -0.003742  -0.010391
    11  H    0.052523  -0.051993   0.395373  -0.088369   0.004463   0.025160
    12  H   -0.020603   0.083386   0.028863  -0.175054  -0.000912   0.287126
    13  C   -0.000860  -0.001226   0.000275   0.001375  -0.000006  -0.000213
    14  C   -0.005304  -0.006372   0.011188   0.000404   0.000011  -0.000550
    15  C    0.000360   0.036359  -0.032979  -0.012165   0.000264  -0.002426
    16  C    0.014958  -0.047401   0.001978   0.088000  -0.000938  -0.016918
    17  C   -0.060882   0.106294  -0.016913  -0.002186  -0.002643  -0.021004
    18  N    0.016568   0.006890   0.019403  -0.090214   0.002857   0.034983
    19  C    0.090969   0.003382  -0.062647  -0.064726   0.002675   0.044656
    20  C   -0.070223  -0.047015   0.046257   0.112366  -0.002847  -0.055234
    21  H   -0.000063  -0.000128   0.000066   0.000119  -0.000000  -0.000014
    22  H   -0.000043  -0.000214   0.000269  -0.000167   0.000000  -0.000010
    23  H    0.000144   0.000331  -0.000458  -0.000015   0.000000  -0.000027
    24  H    0.001702  -0.003854   0.005797  -0.001685   0.000038   0.000663
    25  H   -0.004451   0.003771  -0.031896   0.030367  -0.001180  -0.006430
    26  H    0.006687  -0.004840  -0.007817   0.012396   0.000878   0.005385
    27  H   -0.001113  -0.003276   0.003990   0.000113  -0.000016   0.000505
               7          8          9         10         11         12
     1  C    0.425203   0.416769   0.355070  -0.052635   0.052523  -0.020603
     2  C   -0.031813  -0.082164  -0.029599  -0.003622  -0.051993   0.083386
     3  C   -0.017883   0.031912  -0.019509   0.370926   0.395373   0.028863
     4  C   -0.018819  -0.020012   0.039661   0.071671  -0.088369  -0.175054
     5  O    0.001937  -0.000117  -0.001240  -0.003742   0.004463  -0.000912
     6  O    0.002118  -0.000443  -0.002309  -0.010391   0.025160   0.287126
     7  H    0.535201  -0.034992  -0.046347   0.002606  -0.003121   0.001573
     8  H   -0.034992   0.556762  -0.029189  -0.000685   0.004077  -0.000571
     9  H   -0.046347  -0.029189   0.583410   0.002049  -0.003762  -0.003667
    10  H    0.002606  -0.000685   0.002049   0.528458  -0.041049  -0.002887
    11  H   -0.003121   0.004077  -0.003762  -0.041049   0.564282   0.001530
    12  H    0.001573  -0.000571  -0.003667  -0.002887   0.001530   0.433501
    13  C   -0.000004   0.000005  -0.000106   0.000399  -0.000394   0.000691
    14  C   -0.000086  -0.000272   0.000257   0.000750   0.001863  -0.003159
    15  C   -0.000406   0.000467   0.000914  -0.007605   0.008977   0.004975
    16  C   -0.000259   0.012319  -0.023896   0.001420   0.010441  -0.092384
    17  C    0.001310  -0.007456   0.009290   0.010656  -0.022133   0.073303
    18  N   -0.001436  -0.000149   0.005015  -0.002552   0.008299   0.025231
    19  C   -0.000618   0.002024   0.005032  -0.011964   0.009328   0.009395
    20  C    0.000503  -0.002323  -0.002129   0.013356  -0.015642  -0.050402
    21  H   -0.000001  -0.000002  -0.000003   0.000039  -0.000034  -0.000125
    22  H   -0.000002  -0.000021   0.000025  -0.000029  -0.000032   0.000048
    23  H   -0.000001   0.000009  -0.000001  -0.000095   0.000125  -0.000481
    24  H    0.000109   0.000036  -0.000237   0.000179  -0.000213   0.001599
    25  H   -0.001044  -0.002030   0.002784   0.002052  -0.001554  -0.006462
    26  H    0.000073   0.000137   0.000009  -0.000170  -0.000067  -0.012158
    27  H    0.000001  -0.000062   0.000037   0.000487  -0.001001   0.002127
              13         14         15         16         17         18
     1  C   -0.000860  -0.005304   0.000360   0.014958  -0.060882   0.016568
     2  C   -0.001226  -0.006372   0.036359  -0.047401   0.106294   0.006890
     3  C    0.000275   0.011188  -0.032979   0.001978  -0.016913   0.019403
     4  C    0.001375   0.000404  -0.012165   0.088000  -0.002186  -0.090214
     5  O   -0.000006   0.000011   0.000264  -0.000938  -0.002643   0.002857
     6  O   -0.000213  -0.000550  -0.002426  -0.016918  -0.021004   0.034983
     7  H   -0.000004  -0.000086  -0.000406  -0.000259   0.001310  -0.001436
     8  H    0.000005  -0.000272   0.000467   0.012319  -0.007456  -0.000149
     9  H   -0.000106   0.000257   0.000914  -0.023896   0.009290   0.005015
    10  H    0.000399   0.000750  -0.007605   0.001420   0.010656  -0.002552
    11  H   -0.000394   0.001863   0.008977   0.010441  -0.022133   0.008299
    12  H    0.000691  -0.003159   0.004975  -0.092384   0.073303   0.025231
    13  C    5.327848   0.352055  -0.094351  -0.055270  -0.071124   0.005061
    14  C    0.352055   7.885402  -2.325241   1.202261  -0.453320   0.051084
    15  C   -0.094351  -2.325241  10.548075  -1.831061   0.421008  -0.228087
    16  C   -0.055270   1.202261  -1.831061  13.911288  -4.794162   0.263828
    17  C   -0.071124  -0.453320   0.421008  -4.794162  10.348560   0.056142
    18  N    0.005061   0.051084  -0.228087   0.263828   0.056142   6.734727
    19  C   -0.061295  -0.415629   1.364243  -0.353929   0.333616   0.086821
    20  C    0.384760  -0.592258  -2.000233  -2.529703   0.129875   0.181254
    21  H    0.391407  -0.046391   0.019068   0.025085  -0.024722   0.000433
    22  H    0.374346   0.056864  -0.108464   0.026288   0.011832  -0.000615
    23  H   -0.070888   0.369380   0.057020   0.054717  -0.017194  -0.002152
    24  H    0.006338   0.041211  -0.150551   0.338715   0.029412   0.012027
    25  H    0.003330   0.010831   0.000593  -0.086250   0.482379  -0.088146
    26  H   -0.001850   0.001630   0.029470  -0.021510   0.020421  -0.092020
    27  H    0.015356   0.042722  -0.197733   0.054145   0.015898   0.017550
              19         20         21         22         23         24
     1  C    0.090969  -0.070223  -0.000063  -0.000043   0.000144   0.001702
     2  C    0.003382  -0.047015  -0.000128  -0.000214   0.000331  -0.003854
     3  C   -0.062647   0.046257   0.000066   0.000269  -0.000458   0.005797
     4  C   -0.064726   0.112366   0.000119  -0.000167  -0.000015  -0.001685
     5  O    0.002675  -0.002847  -0.000000   0.000000   0.000000   0.000038
     6  O    0.044656  -0.055234  -0.000014  -0.000010  -0.000027   0.000663
     7  H   -0.000618   0.000503  -0.000001  -0.000002  -0.000001   0.000109
     8  H    0.002024  -0.002323  -0.000002  -0.000021   0.000009   0.000036
     9  H    0.005032  -0.002129  -0.000003   0.000025  -0.000001  -0.000237
    10  H   -0.011964   0.013356   0.000039  -0.000029  -0.000095   0.000179
    11  H    0.009328  -0.015642  -0.000034  -0.000032   0.000125  -0.000213
    12  H    0.009395  -0.050402  -0.000125   0.000048  -0.000481   0.001599
    13  C   -0.061295   0.384760   0.391407   0.374346  -0.070888   0.006338
    14  C   -0.415629  -0.592258  -0.046391   0.056864   0.369380   0.041211
    15  C    1.364243  -2.000233   0.019068  -0.108464   0.057020  -0.150551
    16  C   -0.353929  -2.529703   0.025085   0.026288   0.054717   0.338715
    17  C    0.333616   0.129875  -0.024722   0.011832  -0.017194   0.029412
    18  N    0.086821   0.181254   0.000433  -0.000615  -0.002152   0.012027
    19  C    8.012440  -3.024695  -0.007904  -0.006311   0.024305   0.014000
    20  C   -3.024695  13.202552   0.010027   0.004839  -0.123170  -0.003445
    21  H   -0.007904   0.010027   0.540861  -0.040827  -0.015874   0.001563
    22  H   -0.006311   0.004839  -0.040827   0.529392   0.008533  -0.003622
    23  H    0.024305  -0.123170  -0.015874   0.008533   0.524738  -0.000494
    24  H    0.014000  -0.003445   0.001563  -0.003622  -0.000494   0.538849
    25  H   -0.017939   0.008426   0.000352   0.000706   0.000138  -0.012376
    26  H    0.506892  -0.116442  -0.000053  -0.000228   0.000946   0.001081
    27  H   -0.085134   0.410369   0.000313   0.001078  -0.006510   0.000978
              25         26         27
     1  C   -0.004451   0.006687  -0.001113
     2  C    0.003771  -0.004840  -0.003276
     3  C   -0.031896  -0.007817   0.003990
     4  C    0.030367   0.012396   0.000113
     5  O   -0.001180   0.000878  -0.000016
     6  O   -0.006430   0.005385   0.000505
     7  H   -0.001044   0.000073   0.000001
     8  H   -0.002030   0.000137  -0.000062
     9  H    0.002784   0.000009   0.000037
    10  H    0.002052  -0.000170   0.000487
    11  H   -0.001554  -0.000067  -0.001001
    12  H   -0.006462  -0.012158   0.002127
    13  C    0.003330  -0.001850   0.015356
    14  C    0.010831   0.001630   0.042722
    15  C    0.000593   0.029470  -0.197733
    16  C   -0.086250  -0.021510   0.054145
    17  C    0.482379   0.020421   0.015898
    18  N   -0.088146  -0.092020   0.017550
    19  C   -0.017939   0.506892  -0.085134
    20  C    0.008426  -0.116442   0.410369
    21  H    0.000352  -0.000053   0.000313
    22  H    0.000706  -0.000228   0.001078
    23  H    0.000138   0.000946  -0.006510
    24  H   -0.012376   0.001081   0.000978
    25  H    0.558980  -0.000046   0.001185
    26  H   -0.000046   0.508389  -0.010894
    27  H    0.001185  -0.010894   0.559260
 Mulliken charges:
               1
     1  C   -0.528904
     2  C    0.801619
     3  C   -0.577888
     4  C   -0.398204
     5  O   -0.222677
     6  O   -0.262826
     7  H    0.186198
     8  H    0.155972
     9  H    0.158438
    10  H    0.132379
    11  H    0.142924
    12  H    0.415520
    13  C   -0.505661
    14  C   -0.179329
    15  C    0.499507
    16  C   -0.151762
    17  C   -0.556257
    18  N   -0.022804
    19  C   -0.396986
    20  C    0.131179
    21  H    0.146808
    22  H    0.146363
    23  H    0.196974
    24  H    0.182180
    25  H    0.153910
    26  H    0.173701
    27  H    0.179625
 Sum of Mulliken charges =  -0.00000
 Mulliken charges with hydrogens summed into heavy atoms:
               1
     1  C   -0.028296
     2  C    0.801619
     3  C   -0.302585
     4  C   -0.398204
     5  O   -0.222677
     6  O    0.152694
    13  C   -0.212490
    14  C    0.017644
    15  C    0.499507
    16  C    0.030419
    17  C   -0.402347
    18  N   -0.022804
    19  C   -0.223285
    20  C    0.310803
 DipInt: DoE/N= T F RetVal/Mat= T F Init=T NMatP=  1 IDeriv=0 Min/MaxMlt=  0  4
 Entering OneElI...
 OneElI was handed 68719040249 working-precision words.
 Multipole integrals L=0 to 4 MinM= 0 MaxM= 0.
 Requested accuracy = 0.1000D-12
 ShPair: Thresh= 1.00D-13 NBox=     0 BxSize= 0.00D+00 RnKept= 2.01D+01
         NSMCal=                11175 NSMKep=                9555
 PrmmSu-InSpLW:  IPartL=    0 NPrtUS=    1 NPrtUL=    1 DoSpLW=F IThBeg=    0 IThEnd=    0 NThAct=    1.
 PrsmSu:  NPrtUS=   1 ThrOK=F IAlg=1 NPAlg=1 LenDen=           0 ISkipM=0 DoSpLW=F IThBeg=    0 IThEnd=    0.
 Prism:   IPart=     0 DynPar=F LinDyn=F Incr=          95.
 PRISM was handed 68718408782 working-precision words and  9555 shell-pairs
 IPart=  0 NShTot=        9555 NBatch=         194 AvBLen=        49.3
 PrsmSu-ThDecC:  IPartSL=    0    0 NPrtUSL=    1    1 IThBeg=    0 IThEnd=    0 CPU=   -1 GPU=   -1 NThAct=    1.
 PrSmSu:  NxtVal=             96.
 Electronic moments (au):
       -102.00000000         -2.86960049          1.27595138         -0.14876818
      -3527.48558638       -581.04030045       -224.85771685          9.66496331
         -4.65273304         -0.11402974       2805.59976050        -43.75155459
        -66.02734911       -533.10871267       -981.61971191      -1400.48996155
       -194.75697372       -293.60148924         24.20643342        327.83930866
    -210734.69310909      -7049.58492335      -1667.82048578      12110.48238547
       8597.56004974      -2011.92176107         84.40396959        -93.42034703
       -181.26694658     -17961.78098005      -6958.08029042      -1466.00324880
        453.70709355        651.29350530       -618.73022739
 Electronic spatial extent (au):  <R**2>=           4333.3836
 DipInt: DoE/N= F T RetVal/Mat= T F Init=T NMatP=  1 IDeriv=0 Min/MaxMlt=  0  4
 Nuclear    moments (au):
        102.00000000         -0.00000000          0.00000000          0.00000000
       3456.38355551        522.83695016        160.91898149         -0.00000000
          0.00000000          0.00000000      -3033.17896427         46.99720831
         67.33616868        506.19107532       1042.78220905       1384.60052763
        216.74210989        293.70396506        -24.74946081       -330.50499313
     197236.29035288       5080.55223895        806.15548344     -11579.07591250
      -9039.90572419       2069.27541941        -83.62698274        106.42568784
        172.30528750      15496.74686912       4573.46709988        975.11279174
       -410.19792837       -695.21582613        571.76203660
 Total      moments (au):
          0.00000000         -2.86960049          1.27595138         -0.14876818
        -71.10203087        -58.20335029        -63.93873536          9.66496331
         -4.65273304         -0.11402974       -227.57920377          3.24565372
          1.30881958        -26.91763734         61.16249714        -15.88943392
         21.98513617          0.10247582         -0.54302739         -2.66568447
     -13498.40275621      -1969.03268440       -861.66500234        531.40647297
       -442.34567445         57.35365834          0.77698685         13.00534081
         -8.96165908      -2465.03411093      -2384.61319054       -490.89045706
         43.50916518        -43.92232083        -46.96819079
 Traceless Quadrup. (au):
         -6.68732536          6.21135522          0.47597015          9.66496331
         -4.65273304         -0.11402974
 Charge=              0.0000 electrons
 Dipole moment (field-independent basis, Debye):
    X=             -7.2938    Y=              3.2431    Z=             -0.3781  Tot=              7.9913
 Quadrupole moment (field-independent basis, Debye-Ang):
   XX=            -95.6347   YY=            -78.2855   ZZ=            -85.9998
   XY=             12.9997   XZ=             -6.2581   YZ=             -0.1534
 Traceless Quadrupole moment (field-independent basis, Debye-Ang):
   XX=             -8.9947   YY=              8.3545   ZZ=              0.6402
   XY=             12.9997   XZ=             -6.2581   YZ=             -0.1534
 Octapole moment (field-independent basis, Debye-Ang**2):
  XXX=           -161.9821  YYY=              2.3101  ZZZ=              0.9316  XYY=            -19.1589
  XXY=             43.5331  XXZ=            -11.3095  XZZ=             15.6482  YZZ=              0.0729
  YYZ=             -0.3865  XYZ=             -1.8973
 Hexadecapole moment (field-independent basis, Debye-Ang**3):
 XXXX=          -5084.1457 YYYY=           -741.6321 ZZZZ=           -324.5444 XXXY=            200.1532
 XXXZ=           -166.6086 YYYX=             21.6021 YYYZ=              0.2927 ZZZX=              4.8984
 ZZZY=             -3.3754 XXYY=           -928.4500 XXZZ=           -898.1597 YYZZ=           -184.8929
 XXYZ=             16.3876 YYXZ=            -16.5433 ZZXY=            -17.6905
 N-N= 8.007294457871D+02 E-N=-3.074909537430D+03  KE= 6.297171648365D+02
 Entering OneElI...
 OneElI was handed 68719136007 working-precision words.
 Calculate electrostatic properties
    NBasis =   399  MinDer = 0  MaxDer = 0
    NGrid  =    27  NMatD  =   1
 Requested accuracy = 0.1000D-12
 ShPair: Thresh= 1.00D-13 NBox=     0 BxSize= 0.00D+00 RnKept= 2.01D+01
         NSMCal=                11175 NSMKep=                8854
 PrmmSu-InSpLW:  IPartL=    0 NPrtUS=  128 NPrtUL=    1 DoSpLW=F IThBeg=    0 IThEnd=  127 NThAct=  128.
 PrsmSu:  NPrtUS= 128 ThrOK=T IAlg=1 NPAlg=1 LenDen=           0 ISkipM=0 DoSpLW=F IThBeg=    0 IThEnd=  127.
 Prism:   IPart=     0 DynPar=F LinDyn=F Incr=          18.
 PRISM was handed   536689332 working-precision words and  8854 shell-pairs
 PRISM was handed   536689332 working-precision words and  8854 shell-pairs
 PRISM was handed   536689332 working-precision words and  8854 shell-pairs
 PRISM was handed   536689332 working-precision words and  8854 shell-pairs
 PRISM was handed   536689332 working-precision words and  8854 shell-pairs
 PRISM was handed   536689332 working-precision words and  8854 shell-pairs
 PRISM was handed   536689332 working-precision words and  8854 shell-pairs
 PRISM was handed   536689332 working-precision words and  8854 shell-pairs
 PRISM was handed   536689332 working-precision words and  8854 shell-pairs
 PRISM was handed   536689332 working-precision words and  8854 shell-pairs
 PRISM was handed   536689332 working-precision words and  8854 shell-pairs
 PRISM was handed   536689332 working-precision words and  8854 shell-pairs
 PRISM was handed   536689332 working-precision words and  8854 shell-pairs
 PRISM was handed   536689332 working-precision words and  8854 shell-pairs
 PRISM was handed   536689332 working-precision words and  8854 shell-pairs
 PRISM was handed   536689332 working-precision words and  8854 shell-pairs
 PRISM was handed   536689332 working-precision words and  8854 shell-pairs
 PRISM was handed   536689332 working-precision words and  8854 shell-pairs
 PRISM was handed   536689332 working-precision words and  8854 shell-pairs
 PRISM was handed   536689332 working-precision words and  8854 shell-pairs
 PRISM was handed   536689332 working-precision words and  8854 shell-pairs
 PRISM was handed   536689332 working-precision words and  8854 shell-pairs
 PRISM was handed   536689332 working-precision words and  8854 shell-pairs
 PRISM was handed   536689332 working-precision words and  8854 shell-pairs
 PRISM was handed   536689332 working-precision words and  8854 shell-pairs
 PRISM was handed   536689332 working-precision words and  8854 shell-pairs
 PRISM was handed   536689332 working-precision words and  8854 shell-pairs
 PRISM was handed   536689332 working-precision words and  8854 shell-pairs
 PRISM was handed   536689332 working-precision words and  8854 shell-pairs
 PRISM was handed   536689332 working-precision words and  8854 shell-pairs
 PRISM was handed   536689332 working-precision words and  8854 shell-pairs
 PRISM was handed   536689332 working-precision words and  8854 shell-pairs
 PRISM was handed   536689332 working-precision words and  8854 shell-pairs
 PRISM was handed   536689332 working-precision words and  8854 shell-pairs
 PRISM was handed   536689332 working-precision words and  8854 shell-pairs
 PRISM was handed   536689332 working-precision words and  8854 shell-pairs
 PRISM was handed   536689332 working-precision words and  8854 shell-pairs
 PRISM was handed   536689332 working-precision words and  8854 shell-pairs
 PRISM was handed   536689332 working-precision words and  8854 shell-pairs
 PRISM was handed   536689332 working-precision words and  8854 shell-pairs
 PRISM was handed   536689332 working-precision words and  8854 shell-pairs
 PRISM was handed   536689332 working-precision words and  8854 shell-pairs
 PRISM was handed   536689332 working-precision words and  8854 shell-pairs
 IPart=  0 NShTot=        2970 NBatch=         111 AvBLen=        26.8
 PrsmSu-ThDecC:  IPartSL=    0    0 NPrtUSL=  128    1 IThBeg=    0 IThEnd=  127 CPU=   -1 GPU=   -1 NThAct=  128.
 PRISM was handed   536689332 working-precision words and  8854 shell-pairs
 PRISM was handed   536689332 working-precision words and  8854 shell-pairs
 PRISM was handed   536689332 working-precision words and  8854 shell-pairs
 IPart= 63 NShTot=        1809 NBatch=          68 AvBLen=        26.6
 PrsmSu-ThDecC:  IPartSL=   63    0 NPrtUSL=  128    1 IThBeg=    0 IThEnd=  127 CPU=   -1 GPU=   -1 NThAct=  127.
 IPart= 33 NShTot=        2025 NBatch=          76 AvBLen=        26.6
 PrsmSu-ThDecC:  IPartSL=   33    0 NPrtUSL=  128    1 IThBeg=    0 IThEnd=  127 CPU=   -1 GPU=   -1 NThAct=  126.
 PRISM was handed   536689332 working-precision words and  8854 shell-pairs
 PRISM was handed   536689332 working-precision words and  8854 shell-pairs
 PRISM was handed   536689332 working-precision words and  8854 shell-pairs
 PRISM was handed   536689332 working-precision words and  8854 shell-pairs
 PRISM was handed   536689332 working-precision words and  8854 shell-pairs
 PRISM was handed   536689332 working-precision words and  8854 shell-pairs
 PRISM was handed   536689332 working-precision words and  8854 shell-pairs
 PRISM was handed   536689332 working-precision words and  8854 shell-pairs
 PRISM was handed   536689332 working-precision words and  8854 shell-pairs
 PRISM was handed   536689332 working-precision words and  8854 shell-pairs
 PRISM was handed   536689332 working-precision words and  8854 shell-pairs
 PRISM was handed   536689332 working-precision words and  8854 shell-pairs
 PRISM was handed   536689332 working-precision words and  8854 shell-pairs
 PRISM was handed   536689332 working-precision words and  8854 shell-pairs
 PRISM was handed   536689332 working-precision words and  8854 shell-pairs
 PRISM was handed   536689332 working-precision words and  8854 shell-pairs
 PRISM was handed   536689332 working-precision words and  8854 shell-pairs
 PRISM was handed   536689332 working-precision words and  8854 shell-pairs
 PRISM was handed   536689332 working-precision words and  8854 shell-pairs
 PRISM was handed   536689332 working-precision words and  8854 shell-pairs
 PRISM was handed   536689332 working-precision words and  8854 shell-pairs
 PRISM was handed   536689332 working-precision words and  8854 shell-pairs
 PRISM was handed   536689332 working-precision words and  8854 shell-pairs
 PRISM was handed   536689332 working-precision words and  8854 shell-pairs
 PRISM was handed   536689332 working-precision words and  8854 shell-pairs
 PRISM was handed   536689332 working-precision words and  8854 shell-pairs
 PRISM was handed   536689332 working-precision words and  8854 shell-pairs
 PRISM was handed   536689332 working-precision words and  8854 shell-pairs
 IPart=125 NShTot=        1566 NBatch=          58 AvBLen=        27.0
 PrsmSu-ThDecC:  IPartSL=  125    0 NPrtUSL=  128    1 IThBeg=    0 IThEnd=  127 CPU=   -1 GPU=   -1 NThAct=  125.
 IPart= 99 NShTot=        1593 NBatch=          59 AvBLen=        27.0
 PrsmSu-ThDecC:  IPartSL=   99    0 NPrtUSL=  128    1 IThBeg=    0 IThEnd=  127 CPU=   -1 GPU=   -1 NThAct=  124.
 IPart= 44 NShTot=        1890 NBatch=          71 AvBLen=        26.6
 PrsmSu-ThDecC:  IPartSL=   44    0 NPrtUSL=  128    1 IThBeg=    0 IThEnd=  127 CPU=   -1 GPU=   -1 NThAct=  123.
 PRISM was handed   536689332 working-precision words and  8854 shell-pairs
 IPart= 86 NShTot=        1647 NBatch=          61 AvBLen=        27.0
 PrsmSu-ThDecC:  IPartSL=   86    0 NPrtUSL=  128    1 IThBeg=    0 IThEnd=  127 CPU=   -1 GPU=   -1 NThAct=  122.
 IPart= 10 NShTot=        2430 NBatch=          91 AvBLen=        26.7
 PrsmSu-ThDecC:  IPartSL=   10    0 NPrtUSL=  128    1 IThBeg=    0 IThEnd=  127 CPU=   -1 GPU=   -1 NThAct=  121.
 IPart= 35 NShTot=        1971 NBatch=          74 AvBLen=        26.6
 PrsmSu-ThDecC:  IPartSL=   35    0 NPrtUSL=  128    1 IThBeg=    0 IThEnd=  127 CPU=   -1 GPU=   -1 NThAct=  120.
 IPart= 52 NShTot=        1863 NBatch=          70 AvBLen=        26.6
 IPart= 42 NShTot=        1917 NBatch=          72 AvBLen=        26.6
 IPart= 68 NShTot=        1782 NBatch=          67 AvBLen=        26.6
 PrsmSu-ThDecC:  IPartSL=   52    0 NPrtUSL=  128    1 IThBeg=    0 IThEnd=  127 CPU=   -1 GPU=   -1 NThAct=  119.
 PrsmSu-ThDecC:  IPartSL=   42    0 NPrtUSL=  128    1 IThBeg=    0 IThEnd=  127 CPU=   -1 GPU=   -1 NThAct=  118.
 PrsmSu-ThDecC:  IPartSL=   68    0 NPrtUSL=  128    1 IThBeg=    0 IThEnd=  127 CPU=   -1 GPU=   -1 NThAct=  117.
 IPart= 14 NShTot=        2241 NBatch=          84 AvBLen=        26.7
 PRISM was handed   536689332 working-precision words and  8854 shell-pairs
 PrsmSu-ThDecC:  IPartSL=   14    0 NPrtUSL=  128    1 IThBeg=    0 IThEnd=  127 CPU=   -1 GPU=   -1 NThAct=  116.
 IPart=  8 NShTot=        2619 NBatch=          98 AvBLen=        26.7
 IPart= 43 NShTot=        1890 NBatch=          71 AvBLen=        26.6
 PrsmSu-ThDecC:  IPartSL=    8    0 NPrtUSL=  128    1 IThBeg=    0 IThEnd=  127 CPU=   -1 GPU=   -1 NThAct=  115.
 PrsmSu-ThDecC:  IPartSL=   43    0 NPrtUSL=  128    1 IThBeg=    0 IThEnd=  127 CPU=   -1 GPU=   -1 NThAct=  114.
 IPart= 58 NShTot=        1836 NBatch=          69 AvBLen=        26.6
 PrsmSu-ThDecC:  IPartSL=   58    0 NPrtUSL=  128    1 IThBeg=    0 IThEnd=  127 CPU=   -1 GPU=   -1 NThAct=  113.
 IPart= 40 NShTot=        1917 NBatch=          72 AvBLen=        26.6
 PrsmSu-ThDecC:  IPartSL=   40    0 NPrtUSL=  128    1 IThBeg=    0 IThEnd=  127 CPU=   -1 GPU=   -1 NThAct=  112.
 IPart= 80 NShTot=        1674 NBatch=          62 AvBLen=        27.0
 PrsmSu-ThDecC:  IPartSL=   80    0 NPrtUSL=  128    1 IThBeg=    0 IThEnd=  127 CPU=   -1 GPU=   -1 NThAct=  111.
 IPart=111 NShTot=        1566 NBatch=          58 AvBLen=        27.0
 PrsmSu-ThDecC:  IPartSL=  111    0 NPrtUSL=  128    1 IThBeg=    0 IThEnd=  127 CPU=   -1 GPU=   -1 NThAct=  110.
 IPart= 47 NShTot=        1863 NBatch=          70 AvBLen=        26.6
 PrsmSu-ThDecC:  IPartSL=   47    0 NPrtUSL=  128    1 IThBeg=    0 IThEnd=  127 CPU=   -1 GPU=   -1 NThAct=  109.
 IPart= 36 NShTot=        1971 NBatch=          74 AvBLen=        26.6
 PrsmSu-ThDecC:  IPartSL=   36    0 NPrtUSL=  128    1 IThBeg=    0 IThEnd=  127 CPU=   -1 GPU=   -1 NThAct=  108.
 IPart=  4 NShTot=        2673 NBatch=         100 AvBLen=        26.7
 PrsmSu-ThDecC:  IPartSL=    4    0 NPrtUSL=  128    1 IThBeg=    0 IThEnd=  127 CPU=   -1 GPU=   -1 NThAct=  107.
 IPart= 51 NShTot=        1863 NBatch=          70 AvBLen=        26.6
 PrsmSu-ThDecC:  IPartSL=   51    0 NPrtUSL=  128    1 IThBeg=    0 IThEnd=  127 CPU=   -1 GPU=   -1 NThAct=  106.
 IPart= 25 NShTot=        2052 NBatch=          77 AvBLen=        26.6
 PrsmSu-ThDecC:  IPartSL=   25    0 NPrtUSL=  128    1 IThBeg=    0 IThEnd=  127 CPU=   -1 GPU=   -1 NThAct=  105.
 IPart= 71 NShTot=        1728 NBatch=          64 AvBLen=        27.0
 PrsmSu-ThDecC:  IPartSL=   71    0 NPrtUSL=  128    1 IThBeg=    0 IThEnd=  127 CPU=   -1 GPU=   -1 NThAct=  104.
 IPart=  9 NShTot=        2484 NBatch=          93 AvBLen=        26.7
 IPart= 13 NShTot=        2349 NBatch=          88 AvBLen=        26.7
 PrsmSu-ThDecC:  IPartSL=    9    0 NPrtUSL=  128    1 IThBeg=    0 IThEnd=  127 CPU=   -1 GPU=   -1 NThAct=  103.
 PrsmSu-ThDecC:  IPartSL=   13    0 NPrtUSL=  128    1 IThBeg=    0 IThEnd=  127 CPU=   -1 GPU=   -1 NThAct=  102.
 IPart= 31 NShTot=        2025 NBatch=          76 AvBLen=        26.6
 PrsmSu-ThDecC:  IPartSL=   31    0 NPrtUSL=  128    1 IThBeg=    0 IThEnd=  127 CPU=   -1 GPU=   -1 NThAct=  101.
 IPart= 26 NShTot=        2025 NBatch=          76 AvBLen=        26.6
 PrsmSu-ThDecC:  IPartSL=   26    0 NPrtUSL=  128    1 IThBeg=    0 IThEnd=  127 CPU=   -1 GPU=   -1 NThAct=  100.
 IPart=  1 NShTot=        2862 NBatch=         107 AvBLen=        26.7
 PrsmSu-ThDecC:  IPartSL=    1    0 NPrtUSL=  128    1 IThBeg=    0 IThEnd=  127 CPU=   -1 GPU=   -1 NThAct=   99.
 IPart=  5 NShTot=        2673 NBatch=         100 AvBLen=        26.7
 PrsmSu-ThDecC:  IPartSL=    5    0 NPrtUSL=  128    1 IThBeg=    0 IThEnd=  127 CPU=   -1 GPU=   -1 NThAct=   98.
 IPart=  3 NShTot=        2727 NBatch=         102 AvBLen=        26.7
 PrsmSu-ThDecC:  IPartSL=    3    0 NPrtUSL=  128    1 IThBeg=    0 IThEnd=  127 CPU=   -1 GPU=   -1 NThAct=   97.
 IPart= 38 NShTot=        1944 NBatch=          73 AvBLen=        26.6
 PrsmSu-ThDecC:  IPartSL=   38    0 NPrtUSL=  128    1 IThBeg=    0 IThEnd=  127 CPU=   -1 GPU=   -1 NThAct=   96.
 IPart= 75 NShTot=        1701 NBatch=          63 AvBLen=        27.0
 PrsmSu-ThDecC:  IPartSL=   75    0 NPrtUSL=  128    1 IThBeg=    0 IThEnd=  127 CPU=   -1 GPU=   -1 NThAct=   95.
 IPart= 22 NShTot=        2106 NBatch=          79 AvBLen=        26.7
 PrsmSu-ThDecC:  IPartSL=   22    0 NPrtUSL=  128    1 IThBeg=    0 IThEnd=  127 CPU=   -1 GPU=   -1 NThAct=   94.
 IPart= 64 NShTot=        1809 NBatch=          68 AvBLen=        26.6
 PrsmSu-ThDecC:  IPartSL=   64    0 NPrtUSL=  128    1 IThBeg=    0 IThEnd=  127 CPU=   -1 GPU=   -1 NThAct=   93.
 IPart= 59 NShTot=        1836 NBatch=          69 AvBLen=        26.6
 PrsmSu-ThDecC:  IPartSL=   59    0 NPrtUSL=  128    1 IThBeg=    0 IThEnd=  127 CPU=   -1 GPU=   -1 NThAct=   92.
 IPart= 17 NShTot=        2133 NBatch=          80 AvBLen=        26.7
 PrsmSu-ThDecC:  IPartSL=   17    0 NPrtUSL=  128    1 IThBeg=    0 IThEnd=  127 CPU=   -1 GPU=   -1 NThAct=   91.
 IPart= 61 NShTot=        1809 NBatch=          68 AvBLen=        26.6
 PrsmSu-ThDecC:  IPartSL=   61    0 NPrtUSL=  128    1 IThBeg=    0 IThEnd=  127 CPU=   -1 GPU=   -1 NThAct=   90.
 IPart= 57 NShTot=        1836 NBatch=          69 AvBLen=        26.6
 PrsmSu-ThDecC:  IPartSL=   57    0 NPrtUSL=  128    1 IThBeg=    0 IThEnd=  127 CPU=   -1 GPU=   -1 NThAct=   89.
 PRISM was handed   536689332 working-precision words and  8854 shell-pairs
 PRISM was handed   536689332 working-precision words and  8854 shell-pairs
 PRISM was handed   536689332 working-precision words and  8854 shell-pairs
 PRISM was handed   536689332 working-precision words and  8854 shell-pairs
 PRISM was handed   536689332 working-precision words and  8854 shell-pairs
 IPart= 78 NShTot=        1701 NBatch=          63 AvBLen=        27.0
 PrsmSu-ThDecC:  IPartSL=   78    0 NPrtUSL=  128    1 IThBeg=    0 IThEnd=  127 CPU=   -1 GPU=   -1 NThAct=   88.
 IPart=112 NShTot=        1566 NBatch=          58 AvBLen=        27.0
 PrsmSu-ThDecC:  IPartSL=  112    0 NPrtUSL=  128    1 IThBeg=    0 IThEnd=  127 CPU=   -1 GPU=   -1 NThAct=   87.
 IPart= 15 NShTot=        2160 NBatch=          81 AvBLen=        26.7
 PrsmSu-ThDecC:  IPartSL=   15    0 NPrtUSL=  128    1 IThBeg=    0 IThEnd=  127 CPU=   -1 GPU=   -1 NThAct=   86.
 PRISM was handed   536689332 working-precision words and  8854 shell-pairs
 IPart= 45 NShTot=        1863 NBatch=          70 AvBLen=        26.6
 PrsmSu-ThDecC:  IPartSL=   45    0 NPrtUSL=  128    1 IThBeg=    0 IThEnd=  127 CPU=   -1 GPU=   -1 NThAct=   85.
 IPart= 49 NShTot=        1863 NBatch=          70 AvBLen=        26.6
 PrsmSu-ThDecC:  IPartSL=   49    0 NPrtUSL=  128    1 IThBeg=    0 IThEnd=  127 CPU=   -1 GPU=   -1 NThAct=   84.
 IPart= 32 NShTot=        2025 NBatch=          76 AvBLen=        26.6
 PrsmSu-ThDecC:  IPartSL=   32    0 NPrtUSL=  128    1 IThBeg=    0 IThEnd=  127 CPU=   -1 GPU=   -1 NThAct=   83.
 PRISM was handed   536689332 working-precision words and  8854 shell-pairs
 IPart= 88 NShTot=        1647 NBatch=          61 AvBLen=        27.0
 PrsmSu-ThDecC:  IPartSL=   88    0 NPrtUSL=  128    1 IThBeg=    0 IThEnd=  127 CPU=   -1 GPU=   -1 NThAct=   82.
 IPart= 98 NShTot=        1593 NBatch=          59 AvBLen=        27.0
 PrsmSu-ThDecC:  IPartSL=   98    0 NPrtUSL=  128    1 IThBeg=    0 IThEnd=  127 CPU=   -1 GPU=   -1 NThAct=   81.
 IPart=124 NShTot=        1566 NBatch=          58 AvBLen=        27.0
 IPart= 90 NShTot=        1647 NBatch=          61 AvBLen=        27.0
 PrsmSu-ThDecC:  IPartSL=  124    0 NPrtUSL=  128    1 IThBeg=    0 IThEnd=  127 CPU=   -1 GPU=   -1 NThAct=   80.
 PrsmSu-ThDecC:  IPartSL=   90    0 NPrtUSL=  128    1 IThBeg=    0 IThEnd=  127 CPU=   -1 GPU=   -1 NThAct=   79.
 IPart=117 NShTot=        1566 NBatch=          58 AvBLen=        27.0
 PrsmSu-ThDecC:  IPartSL=  117    0 NPrtUSL=  128    1 IThBeg=    0 IThEnd=  127 CPU=   -1 GPU=   -1 NThAct=   78.
 IPart= 54 NShTot=        1836 NBatch=          69 AvBLen=        26.6
 PrsmSu-ThDecC:  IPartSL=   54    0 NPrtUSL=  128    1 IThBeg=    0 IThEnd=  127 CPU=   -1 GPU=   -1 NThAct=   77.
 IPart= 46 NShTot=        1863 NBatch=          70 AvBLen=        26.6
 IPart= 55 NShTot=        1836 NBatch=          69 AvBLen=        26.6
 PrsmSu-ThDecC:  IPartSL=   46    0 NPrtUSL=  128    1 IThBeg=    0 IThEnd=  127 CPU=   -1 GPU=   -1 NThAct=   76.
 PrsmSu-ThDecC:  IPartSL=   55    0 NPrtUSL=  128    1 IThBeg=    0 IThEnd=  127 CPU=   -1 GPU=   -1 NThAct=   75.
 IPart= 39 NShTot=        1944 NBatch=          73 AvBLen=        26.6
 PrsmSu-ThDecC:  IPartSL=   39    0 NPrtUSL=  128    1 IThBeg=    0 IThEnd=  127 CPU=   -1 GPU=   -1 NThAct=   74.
 IPart= 20 NShTot=        2106 NBatch=          79 AvBLen=        26.7
 PrsmSu-ThDecC:  IPartSL=   20    0 NPrtUSL=  128    1 IThBeg=    0 IThEnd=  127 CPU=   -1 GPU=   -1 NThAct=   73.
 IPart=126 NShTot=        1566 NBatch=          58 AvBLen=        27.0
 PrsmSu-ThDecC:  IPartSL=  126    0 NPrtUSL=  128    1 IThBeg=    0 IThEnd=  127 CPU=   -1 GPU=   -1 NThAct=   72.
 IPart=  2 NShTot=        2808 NBatch=         105 AvBLen=        26.7
 PrsmSu-ThDecC:  IPartSL=    2    0 NPrtUSL=  128    1 IThBeg=    0 IThEnd=  127 CPU=   -1 GPU=   -1 NThAct=   71.
 IPart= 66 NShTot=        1782 NBatch=          67 AvBLen=        26.6
 PrsmSu-ThDecC:  IPartSL=   66    0 NPrtUSL=  128    1 IThBeg=    0 IThEnd=  127 CPU=   -1 GPU=   -1 NThAct=   70.
 IPart=108 NShTot=        1566 NBatch=          58 AvBLen=        27.0
 PrsmSu-ThDecC:  IPartSL=  108    0 NPrtUSL=  128    1 IThBeg=    0 IThEnd=  127 CPU=   -1 GPU=   -1 NThAct=   69.
 IPart= 92 NShTot=        1620 NBatch=          60 AvBLen=        27.0
 PrsmSu-ThDecC:  IPartSL=   92    0 NPrtUSL=  128    1 IThBeg=    0 IThEnd=  127 CPU=   -1 GPU=   -1 NThAct=   68.
 IPart= 81 NShTot=        1674 NBatch=          62 AvBLen=        27.0
 PrsmSu-ThDecC:  IPartSL=   81    0 NPrtUSL=  128    1 IThBeg=    0 IThEnd=  127 CPU=   -1 GPU=   -1 NThAct=   67.
 IPart= 74 NShTot=        1701 NBatch=          63 AvBLen=        27.0
 PrsmSu-ThDecC:  IPartSL=   74    0 NPrtUSL=  128    1 IThBeg=    0 IThEnd=  127 CPU=   -1 GPU=   -1 NThAct=   66.
 IPart= 73 NShTot=        1701 NBatch=          63 AvBLen=        27.0
 PrsmSu-ThDecC:  IPartSL=   73    0 NPrtUSL=  128    1 IThBeg=    0 IThEnd=  127 CPU=   -1 GPU=   -1 NThAct=   65.
 IPart=103 NShTot=        1566 NBatch=          58 AvBLen=        27.0
 PrsmSu-ThDecC:  IPartSL=  103    0 NPrtUSL=  128    1 IThBeg=    0 IThEnd=  127 CPU=   -1 GPU=   -1 NThAct=   64.
 IPart= 21 NShTot=        2106 NBatch=          79 AvBLen=        26.7
 IPart= 56 NShTot=        1836 NBatch=          69 AvBLen=        26.6
 IPart= 37 NShTot=        1971 NBatch=          74 AvBLen=        26.6
 PrsmSu-ThDecC:  IPartSL=   21    0 NPrtUSL=  128    1 IThBeg=    0 IThEnd=  127 CPU=   -1 GPU=   -1 NThAct=   63.
 PrsmSu-ThDecC:  IPartSL=   56    0 NPrtUSL=  128    1 IThBeg=    0 IThEnd=  127 CPU=   -1 GPU=   -1 NThAct=   62.
 PrsmSu-ThDecC:  IPartSL=   37    0 NPrtUSL=  128    1 IThBeg=    0 IThEnd=  127 CPU=   -1 GPU=   -1 NThAct=   61.
 IPart= 28 NShTot=        2025 NBatch=          76 AvBLen=        26.6
 PrsmSu-ThDecC:  IPartSL=   28    0 NPrtUSL=  128    1 IThBeg=    0 IThEnd=  127 CPU=   -1 GPU=   -1 NThAct=   60.
 IPart= 29 NShTot=        2025 NBatch=          76 AvBLen=        26.6
 PrsmSu-ThDecC:  IPartSL=   29    0 NPrtUSL=  128    1 IThBeg=    0 IThEnd=  127 CPU=   -1 GPU=   -1 NThAct=   59.
 IPart= 27 NShTot=        2025 NBatch=          76 AvBLen=        26.6
 PrsmSu-ThDecC:  IPartSL=   27    0 NPrtUSL=  128    1 IThBeg=    0 IThEnd=  127 CPU=   -1 GPU=   -1 NThAct=   58.
 IPart= 34 NShTot=        1998 NBatch=          75 AvBLen=        26.6
 PrsmSu-ThDecC:  IPartSL=   34    0 NPrtUSL=  128    1 IThBeg=    0 IThEnd=  127 CPU=   -1 GPU=   -1 NThAct=   57.
 PRISM was handed   536689332 working-precision words and  8854 shell-pairs
 PRISM was handed   536689332 working-precision words and  8854 shell-pairs
 PRISM was handed   536689332 working-precision words and  8854 shell-pairs
 PRISM was handed   536689332 working-precision words and  8854 shell-pairs
 PRISM was handed   536689332 working-precision words and  8854 shell-pairs
 PRISM was handed   536689332 working-precision words and  8854 shell-pairs
 PRISM was handed   536689332 working-precision words and  8854 shell-pairs
 IPart= 30 NShTot=        2025 NBatch=          76 AvBLen=        26.6
 PrsmSu-ThDecC:  IPartSL=   30    0 NPrtUSL=  128    1 IThBeg=    0 IThEnd=  127 CPU=   -1 GPU=   -1 NThAct=   56.
 IPart=105 NShTot=        1566 NBatch=          58 AvBLen=        27.0
 PrsmSu-ThDecC:  IPartSL=  105    0 NPrtUSL=  128    1 IThBeg=    0 IThEnd=  127 CPU=   -1 GPU=   -1 NThAct=   55.
 IPart=102 NShTot=        1593 NBatch=          59 AvBLen=        27.0
 PrsmSu-ThDecC:  IPartSL=  102    0 NPrtUSL=  128    1 IThBeg=    0 IThEnd=  127 CPU=   -1 GPU=   -1 NThAct=   54.
 PRISM was handed   536689332 working-precision words and  8854 shell-pairs
 PRISM was handed   536689332 working-precision words and  8854 shell-pairs
 PRISM was handed   536689332 working-precision words and  8854 shell-pairs
 PRISM was handed   536689332 working-precision words and  8854 shell-pairs
 PRISM was handed   536689332 working-precision words and  8854 shell-pairs
 PRISM was handed   536689332 working-precision words and  8854 shell-pairs
 PRISM was handed   536689332 working-precision words and  8854 shell-pairs
 PRISM was handed   536689332 working-precision words and  8854 shell-pairs
 PRISM was handed   536689332 working-precision words and  8854 shell-pairs
 PRISM was handed   536689332 working-precision words and  8854 shell-pairs
 PRISM was handed   536689332 working-precision words and  8854 shell-pairs
 PRISM was handed   536689332 working-precision words and  8854 shell-pairs
 PRISM was handed   536689332 working-precision words and  8854 shell-pairs
 PRISM was handed   536689332 working-precision words and  8854 shell-pairs
 PRISM was handed   536689332 working-precision words and  8854 shell-pairs
 PRISM was handed   536689332 working-precision words and  8854 shell-pairs
 PRISM was handed   536689332 working-precision words and  8854 shell-pairs
 PRISM was handed   536689332 working-precision words and  8854 shell-pairs
 PRISM was handed   536689332 working-precision words and  8854 shell-pairs
 IPart= 65 NShTot=        1782 NBatch=          67 AvBLen=        26.6
 PrsmSu-ThDecC:  IPartSL=   65    0 NPrtUSL=  128    1 IThBeg=    0 IThEnd=  127 CPU=   -1 GPU=   -1 NThAct=   53.
 PRISM was handed   536689332 working-precision words and  8854 shell-pairs
 PRISM was handed   536689332 working-precision words and  8854 shell-pairs
 PRISM was handed   536689332 working-precision words and  8854 shell-pairs
 PRISM was handed   536689332 working-precision words and  8854 shell-pairs
 PRISM was handed   536689332 working-precision words and  8854 shell-pairs
 IPart= 97 NShTot=        1593 NBatch=          59 AvBLen=        27.0
 PrsmSu-ThDecC:  IPartSL=   97    0 NPrtUSL=  128    1 IThBeg=    0 IThEnd=  127 CPU=   -1 GPU=   -1 NThAct=   52.
 PRISM was handed   536689332 working-precision words and  8854 shell-pairs
 PRISM was handed   536689332 working-precision words and  8854 shell-pairs
 PRISM was handed   536689332 working-precision words and  8854 shell-pairs
 PRISM was handed   536689332 working-precision words and  8854 shell-pairs
 PRISM was handed   536689332 working-precision words and  8854 shell-pairs
 PRISM was handed   536689332 working-precision words and  8854 shell-pairs
 PRISM was handed   536689332 working-precision words and  8854 shell-pairs
 PRISM was handed   536689332 working-precision words and  8854 shell-pairs
 PRISM was handed   536689332 working-precision words and  8854 shell-pairs
 PRISM was handed   536689332 working-precision words and  8854 shell-pairs
 PRISM was handed   536689332 working-precision words and  8854 shell-pairs
 PRISM was handed   536689332 working-precision words and  8854 shell-pairs
 PRISM was handed   536689332 working-precision words and  8854 shell-pairs
 IPart=121 NShTot=        1566 NBatch=          58 AvBLen=        27.0
 PrsmSu-ThDecC:  IPartSL=  121    0 NPrtUSL=  128    1 IThBeg=    0 IThEnd=  127 CPU=   -1 GPU=   -1 NThAct=   51.
 IPart= 69 NShTot=        1782 NBatch=          67 AvBLen=        26.6
 PrsmSu-ThDecC:  IPartSL=   69    0 NPrtUSL=  128    1 IThBeg=    0 IThEnd=  127 CPU=   -1 GPU=   -1 NThAct=   50.
 IPart=110 NShTot=        1566 NBatch=          58 AvBLen=        27.0
 PrsmSu-ThDecC:  IPartSL=  110    0 NPrtUSL=  128    1 IThBeg=    0 IThEnd=  127 CPU=   -1 GPU=   -1 NThAct=   49.
 IPart= 48 NShTot=        1863 NBatch=          70 AvBLen=        26.6
 PrsmSu-ThDecC:  IPartSL=   48    0 NPrtUSL=  128    1 IThBeg=    0 IThEnd=  127 CPU=   -1 GPU=   -1 NThAct=   48.
 PRISM was handed   536689332 working-precision words and  8854 shell-pairs
 IPart= 87 NShTot=        1647 NBatch=          61 AvBLen=        27.0
 PrsmSu-ThDecC:  IPartSL=   87    0 NPrtUSL=  128    1 IThBeg=    0 IThEnd=  127 CPU=   -1 GPU=   -1 NThAct=   47.
 IPart= 70 NShTot=        1782 NBatch=          67 AvBLen=        26.6
 PrsmSu-ThDecC:  IPartSL=   70    0 NPrtUSL=  128    1 IThBeg=    0 IThEnd=  127 CPU=   -1 GPU=   -1 NThAct=   46.
 IPart= 50 NShTot=        1863 NBatch=          70 AvBLen=        26.6
 PrsmSu-ThDecC:  IPartSL=   50    0 NPrtUSL=  128    1 IThBeg=    0 IThEnd=  127 CPU=   -1 GPU=   -1 NThAct=   45.
 IPart= 16 NShTot=        2160 NBatch=          81 AvBLen=        26.7
 PrsmSu-ThDecC:  IPartSL=   16    0 NPrtUSL=  128    1 IThBeg=    0 IThEnd=  127 CPU=   -1 GPU=   -1 NThAct=   44.
[...]
 **** Fit      -0.031940
 **** Fit      -0.032261
 **** Fit      -0.031765
 **** Fit      -0.030689
 **** Fit      -0.029359
 **** Fit      -0.027969
 **** Fit      -0.026525
 **** Fit      -0.024983
 **** Fit      -0.023350
 **** Fit      -0.021683
 **** Fit      -0.020040
 **** Fit      -0.021566
 **** Fit      -0.023131
 **** Fit      -0.024413
 **** Fit      -0.025152
 **** Fit      -0.025077
 **** Fit      -0.024072
 **** Fit      -0.022393
 **** Fit      -0.020708
 **** Fit      -0.019680
 **** Fit      -0.019415
 **** Fit      -0.019479
 **** Fit      -0.019405
 **** Fit      -0.018996
 **** Fit      -0.018277
 **** Fit      -0.017350
 **** Fit      -0.016309
 **** Fit      -0.018503
 **** Fit      -0.019492
 **** Fit      -0.020067
 **** Fit      -0.019917
 **** Fit      -0.018723
 **** Fit      -0.016381
 **** Fit      -0.013386
 **** Fit      -0.010952
 **** Fit      -0.010236
 **** Fit      -0.011233
 **** Fit      -0.012904
 **** Fit      -0.014282
 **** Fit      -0.015001
 **** Fit      -0.015118
 **** Fit      -0.014808
 **** Fit      -0.014230
 **** Fit      -0.015698
 **** Fit      -0.016236
 **** Fit      -0.016284
 **** Fit      -0.015496
 **** Fit      -0.013494
 **** Fit      -0.010137
 **** Fit      -0.004666
 **** Fit      -0.007658
 **** Fit      -0.010147
 **** Fit      -0.011686
 **** Fit      -0.012398
 **** Fit      -0.012535
 **** Fit      -0.012306
 **** Fit      -0.013232
 **** Fit      -0.013462
 **** Fit      -0.013201
 **** Fit      -0.012115
 **** Fit      -0.009825
 **** Fit      -0.006185
 **** Fit      -0.004480
 **** Fit      -0.007373
 **** Fit      -0.009235
 **** Fit      -0.010217
 **** Fit      -0.010593
 **** Fit      -0.010581
 **** Fit      -0.011128
 **** Fit      -0.011182
 **** Fit      -0.010811
 **** Fit      -0.009748
 **** Fit      -0.007703
 **** Fit      -0.004593
 **** Fit      -0.000443
 **** Fit      -0.003406
 **** Fit      -0.005928
 **** Fit      -0.007608
 **** Fit      -0.008553
 **** Fit      -0.008979
 **** Fit      -0.009063
 **** Fit      -0.009369
 **** Fit      -0.009341
 **** Fit      -0.008993
 **** Fit      -0.008149
 **** Fit      -0.006642
 **** Fit      -0.004476
 **** Fit      -0.002086
 **** Fit      -0.000413
 **** Fit      -0.000303
 **** Fit      -0.001666
 **** Fit      -0.003616
 **** Fit      -0.005351
 **** Fit      -0.006563
 **** Fit      -0.007282
 **** Fit      -0.007634
 **** Fit      -0.007733
 **** Fit      -0.007909
 **** Fit      -0.007855
 **** Fit      -0.007585
 **** Fit      -0.007002
 **** Fit      -0.006039
 **** Fit      -0.004746
 **** Fit      -0.003395
 **** Fit      -0.002473
 **** Fit      -0.002375
 **** Fit      -0.003056
 **** Fit      -0.004094
 **** Fit      -0.005070
 **** Fit      -0.005792
 **** Fit      -0.006246
 **** Fit      -0.006482
 **** Fit      -0.006639
 **** Fit      -0.006445
 **** Fit      -0.006073
 **** Fit      -0.005507
 **** Fit      -0.004798
 **** Fit      -0.004099
 **** Fit      -0.003625
 **** Fit      -0.003534
 **** Fit      -0.003802
 **** Fit      -0.004258
 **** Fit      -0.004717
 **** Fit      -0.005080
 **** Fit      -0.005322
 **** Fit      -0.005457
 **** Fit      -0.005623
 **** Fit      -0.005483
 **** Fit      -0.005245
 **** Fit      -0.004913
 **** Fit      -0.004524
 **** Fit      -0.004154
 **** Fit      -0.003893
 **** Fit      -0.003797
 **** Fit      -0.003858
 **** Fit      -0.004010
 **** Fit      -0.004186
 **** Fit      -0.004339
 **** Fit      -0.004453
 **** Fit      -0.004648
 **** Fit      -0.004481
 **** Fit      -0.004265
 **** Fit      -0.004024
 **** Fit      -0.003795
 **** Fit      -0.003615
 **** Fit      -0.003507
 **** Fit      -0.003471
 **** Fit      -0.003485
 **** Fit      -0.003528
 **** Fit      -0.003582
 **** Fit      -0.003610
 **** Fit      -0.003428
 **** Fit      -0.003249
 **** Fit      -0.003092
 **** Fit      -0.002971
 **** Fit      -0.002891
 **** Fit      -0.002849
 **** Fit      -0.002839
 **** Fit      -0.002511
 **** Fit      -0.002382
 **** Fit      -0.002284
 **** Fit      -0.002222
 **** Fit      -0.042808
 **** Fit      -0.043576
 **** Fit      -0.043504
 **** Fit      -0.042584
 **** Fit      -0.043396
 **** Fit      -0.045133
 **** Fit      -0.046036
 **** Fit      -0.045973
 **** Fit      -0.044928
 **** Fit      -0.043012
 **** Fit      -0.040434
 **** Fit      -0.042316
 **** Fit      -0.044942
 **** Fit      -0.046896
 **** Fit      -0.047929
 **** Fit      -0.047877
 **** Fit      -0.046717
 **** Fit      -0.044579
 **** Fit      -0.041714
 **** Fit      -0.038424
 **** Fit      -0.042899
 **** Fit      -0.045723
 **** Fit      -0.047846
 **** Fit      -0.048981
 **** Fit      -0.048937
 **** Fit      -0.047681
 **** Fit      -0.045364
 **** Fit      -0.042275
 **** Fit      -0.038758
 **** Fit      -0.039316
 **** Fit      -0.042618
 **** Fit      -0.045532
 **** Fit      -0.047736
 **** Fit      -0.048918
 **** Fit      -0.048867
 **** Fit      -0.047546
 **** Fit      -0.045121
 **** Fit      -0.041911
 **** Fit      -0.038292
 **** Fit      -0.038129
 **** Fit      -0.041356
 **** Fit      -0.044208
 **** Fit      -0.046361
 **** Fit      -0.047502
 **** Fit      -0.047416
 **** Fit      -0.046070
 **** Fit      -0.043642
 **** Fit      -0.040463
 **** Fit      -0.036912
 **** Fit      -0.039082
 **** Fit      -0.041686
 **** Fit      -0.043623
 **** Fit      -0.044605
 **** Fit      -0.044443
 **** Fit      -0.043123
 **** Fit      -0.040826
 **** Fit      -0.037865
 **** Fit      -0.034588
 **** Fit      -0.035882
 **** Fit      -0.038049
 **** Fit      -0.039589
 **** Fit      -0.040281
 **** Fit      -0.039996
 **** Fit      -0.038758
 **** Fit      -0.036736
 **** Fit      -0.034190
 **** Fit      -0.031399
 **** Fit      -0.028589
 **** Fit      -0.029994
 **** Fit      -0.031965
 **** Fit      -0.033533
 **** Fit      -0.034517
 **** Fit      -0.034794
 **** Fit      -0.034338
 **** Fit      -0.033228
 **** Fit      -0.031611
 **** Fit      -0.029660
 **** Fit      -0.027537
 **** Fit      -0.025378
 **** Fit      -0.023280
 **** Fit      -0.024702
 **** Fit      -0.026315
 **** Fit      -0.027631
 **** Fit      -0.028497
 **** Fit      -0.028809
 **** Fit      -0.028569
 **** Fit      -0.027892
 **** Fit      -0.026941
 **** Fit      -0.025833
 **** Fit      -0.024612
 **** Fit      -0.023288
 **** Fit      -0.021882
 **** Fit      -0.020435
 **** Fit      -0.021529
 **** Fit      -0.022570
 **** Fit      -0.023226
 **** Fit      -0.023365
 **** Fit      -0.022954
 **** Fit      -0.022135
 **** Fit      -0.021197
 **** Fit      -0.020418
 **** Fit      -0.019881
 **** Fit      -0.019464
 **** Fit      -0.018991
 **** Fit      -0.018362
 **** Fit      -0.017568
 **** Fit      -0.016651
 **** Fit      -0.018476
 **** Fit      -0.019011
 **** Fit      -0.019083
 **** Fit      -0.018569
 **** Fit      -0.017489
 **** Fit      -0.016108
 **** Fit      -0.014907
 **** Fit      -0.014299
 **** Fit      -0.014331
 **** Fit      -0.014691
 **** Fit      -0.015011
 **** Fit      -0.015082
 **** Fit      -0.014866
 **** Fit      -0.014412
 **** Fit      -0.015202
 **** Fit      -0.015691
 **** Fit      -0.015836
 **** Fit      -0.015478
 **** Fit      -0.014496
 **** Fit      -0.012939
 **** Fit      -0.011158
 **** Fit      -0.009778
 **** Fit      -0.009325
 **** Fit      -0.009810
 **** Fit      -0.010767
 **** Fit      -0.011679
 **** Fit      -0.012265
 **** Fit      -0.012476
 **** Fit      -0.012373
 **** Fit      -0.013023
 **** Fit      -0.013261
 **** Fit      -0.013159
 **** Fit      -0.012569
 **** Fit      -0.011385
 **** Fit      -0.009671
 **** Fit      -0.007798
 **** Fit      -0.006423
 **** Fit      -0.006094
 **** Fit      -0.006799
 **** Fit      -0.008020
 **** Fit      -0.009200
 **** Fit      -0.010038
 **** Fit      -0.010481
 **** Fit      -0.010591
 **** Fit      -0.011126
 **** Fit      -0.011210
 **** Fit      -0.010994
 **** Fit      -0.010362
 **** Fit      -0.009238
 **** Fit      -0.007693
 **** Fit      -0.006060
 **** Fit      -0.004894
 **** Fit      -0.004651
 **** Fit      -0.005316
 **** Fit      -0.006446
 **** Fit      -0.007560
 **** Fit      -0.008390
 **** Fit      -0.008880
 **** Fit      -0.009075
 **** Fit      -0.009510
 **** Fit      -0.009277
 **** Fit      -0.008729
 **** Fit      -0.007829
 **** Fit      -0.006648
 **** Fit      -0.005438
 **** Fit      -0.004587
 **** Fit      -0.004402
 **** Fit      -0.004872
 **** Fit      -0.005698
 **** Fit      -0.006538
 **** Fit      -0.007192
 **** Fit      -0.007602
 **** Fit      -0.007792
 **** Fit      -0.008107
 **** Fit      -0.007905
 **** Fit      -0.007491
 **** Fit      -0.006853
 **** Fit      -0.006055
 **** Fit      -0.005262
 **** Fit      -0.004707
 **** Fit      -0.004561
 **** Fit      -0.004819
 **** Fit      -0.005312
 **** Fit      -0.005839
 **** Fit      -0.006268
 **** Fit      -0.006550
 **** Fit      -0.006689
 **** Fit      -0.006780
 **** Fit      -0.006489
 **** Fit      -0.006068
 **** Fit      -0.005567
 **** Fit      -0.005082
 **** Fit      -0.004736
 **** Fit      -0.004614
 **** Fit      -0.004715
 **** Fit      -0.004956
 **** Fit      -0.005233
 **** Fit      -0.005471
 **** Fit      -0.005634
 **** Fit      -0.005827
 **** Fit      -0.005625
 **** Fit      -0.005351
 **** Fit      -0.005037
 **** Fit      -0.004738
 **** Fit      -0.004514
 **** Fit      -0.004406
 **** Fit      -0.004412
 **** Fit      -0.004497
 **** Fit      -0.004614
 **** Fit      -0.004723
 **** Fit      -0.004853
 **** Fit      -0.004663
 **** Fit      -0.004453
 **** Fit      -0.004251
 **** Fit      -0.004087
 **** Fit      -0.003982
 **** Fit      -0.003937
 **** Fit      -0.003938
 **** Fit      -0.003967
 **** Fit      -0.003848
 **** Fit      -0.003690
 **** Fit      -0.003553
 **** Fit      -0.003447
 **** Fit      -0.003376
 **** Fit      -0.040893
 **** Fit      -0.040826
 **** Fit      -0.040670
 **** Fit      -0.041421
 **** Fit      -0.041350
 **** Fit      -0.040447
 **** Fit      -0.038800
 **** Fit      -0.040346
 **** Fit      -0.041107
 **** Fit      -0.041024
 **** Fit      -0.040085
 **** Fit      -0.038388
 **** Fit      -0.039107
 **** Fit      -0.039823
 **** Fit      -0.039712
 **** Fit      -0.038764
 **** Fit      -0.037083
 **** Fit      -0.036915
 **** Fit      -0.037522
 **** Fit      -0.037361
 **** Fit      -0.036435
 **** Fit      -0.034847
 **** Fit      -0.033840
 **** Fit      -0.034266
 **** Fit      -0.034033
 **** Fit      -0.033160
 **** Fit      -0.031746
 **** Fit      -0.029939
 **** Fit      -0.028257
 **** Fit      -0.029378
 **** Fit      -0.030064
 **** Fit      -0.030247
 **** Fit      -0.029918
 **** Fit      -0.029125
 **** Fit      -0.027954
 **** Fit      -0.026510
 **** Fit      -0.024898
 **** Fit      -0.023869
 **** Fit      -0.024886
 **** Fit      -0.025569
 **** Fit      -0.025859
 **** Fit      -0.025754
 **** Fit      -0.025312
 **** Fit      -0.024616
 **** Fit      -0.023739
 **** Fit      -0.022727
 **** Fit      -0.021607
 **** Fit      -0.020408
 **** Fit      -0.020854
 **** Fit      -0.021437
 **** Fit      -0.021675
 **** Fit      -0.021556
 **** Fit      -0.021149
 **** Fit      -0.020588
 **** Fit      -0.019998
 **** Fit      -0.019436
 **** Fit      -0.018880
 **** Fit      -0.018271
 **** Fit      -0.017571
 **** Fit      -0.016774
 **** Fit      -0.017444
 **** Fit      -0.017946
 **** Fit      -0.018143
 **** Fit      -0.017985
 **** Fit      -0.017501
 **** Fit      -0.016824
 **** Fit      -0.016158
 **** Fit      -0.015673
 **** Fit      -0.015410
 **** Fit      -0.015277
 **** Fit      -0.015135
 **** Fit      -0.014883
 **** Fit      -0.014486
 **** Fit      -0.015076
 **** Fit      -0.015293
 **** Fit      -0.015194
 **** Fit      -0.014746
 **** Fit      -0.014004
 **** Fit      -0.013144
 **** Fit      -0.012419
 **** Fit      -0.012031
 **** Fit      -0.012006
 **** Fit      -0.012199
 **** Fit      -0.012411
 **** Fit      -0.012501
 **** Fit      -0.012413
 **** Fit      -0.012963
 **** Fit      -0.012984
 **** Fit      -0.012707
 **** Fit      -0.012109
 **** Fit      -0.011260
 **** Fit      -0.010347
 **** Fit      -0.009636
 **** Fit      -0.009331
 **** Fit      -0.009447
 **** Fit      -0.009819
 **** Fit      -0.010226
 **** Fit      -0.010514
 **** Fit      -0.010619
 **** Fit      -0.010541
 **** Fit      -0.011133
 **** Fit      -0.011046
 **** Fit      -0.010702
 **** Fit      -0.010091
 **** Fit      -0.009283
 **** Fit      -0.008451
 **** Fit      -0.007828
 **** Fit      -0.007589
 **** Fit      -0.007744
 **** Fit      -0.008142
 **** Fit      -0.008586
 **** Fit      -0.008932
 **** Fit      -0.009117
 **** Fit      -0.009578
 **** Fit      -0.009450
 **** Fit      -0.009121
 **** Fit      -0.008591
 **** Fit      -0.007924
 **** Fit      -0.007256
 **** Fit      -0.006763
 **** Fit      -0.006575
 **** Fit      -0.006697
 **** Fit      -0.007018
 **** Fit      -0.007387
 **** Fit      -0.007691
 **** Fit      -0.007873
 **** Fit      -0.008137
 **** Fit      -0.007863
 **** Fit      -0.007453
 **** Fit      -0.006955
 **** Fit      -0.006468
 **** Fit      -0.006107
 **** Fit      -0.005956
 **** Fit      -0.006019
 **** Fit      -0.006225
 **** Fit      -0.006475
 **** Fit      -0.006690
 **** Fit      -0.006826
 **** Fit      -0.006830
 **** Fit      -0.006532
 **** Fit      -0.006184
 **** Fit      -0.005846
 **** Fit      -0.005591
 **** Fit      -0.005465
 **** Fit      -0.005473
 **** Fit      -0.005576
 **** Fit      -0.005714
 **** Fit      -0.005839
 **** Fit      -0.005947
 **** Fit      -0.005735
 **** Fit      -0.005494
 **** Fit      -0.005261
 **** Fit      -0.005076
 **** Fit      -0.004967
 **** Fit      -0.004936
 **** Fit      -0.004963
 **** Fit      -0.005019
 **** Fit      -0.004840
 **** Fit      -0.004670
 **** Fit      -0.004528
 **** Fit      -0.004427
 **** Fit      -0.004372
 **** Fit      -0.004355
 **** Fit      -0.026489
 **** Fit      -0.026620
 **** Fit      -0.026380
 **** Fit      -0.025796
 **** Fit      -0.024922
 **** Fit      -0.023064
 **** Fit      -0.023323
 **** Fit      -0.023289
 **** Fit      -0.022988
 **** Fit      -0.022467
 **** Fit      -0.021771
 **** Fit      -0.020939
 **** Fit      -0.020001
 **** Fit      -0.019789
 **** Fit      -0.020058
 **** Fit      -0.020076
 **** Fit      -0.019875
 **** Fit      -0.019516
 **** Fit      -0.019063
 **** Fit      -0.018554
 **** Fit      -0.017996
 **** Fit      -0.017377
 **** Fit      -0.016688
 **** Fit      -0.017147
 **** Fit      -0.017168
 **** Fit      -0.016972
 **** Fit      -0.016626
 **** Fit      -0.016221
 **** Fit      -0.015837
 **** Fit      -0.015504
 **** Fit      -0.015199
 **** Fit      -0.014871
 **** Fit      -0.014478
 **** Fit      -0.014675
 **** Fit      -0.014724
 **** Fit      -0.014554
 **** Fit      -0.014204
 **** Fit      -0.013759
 **** Fit      -0.013333
 **** Fit      -0.013014
 **** Fit      -0.012825
 **** Fit      -0.012720
 **** Fit      -0.012622
 **** Fit      -0.012464
 **** Fit      -0.012693
 **** Fit      -0.012603
 **** Fit      -0.012321
 **** Fit      -0.011891
 **** Fit      -0.011410
 **** Fit      -0.010994
 **** Fit      -0.010733
 **** Fit      -0.010643
 **** Fit      -0.010667
 **** Fit      -0.010716
 **** Fit      -0.010715
 **** Fit      -0.010974
 **** Fit      -0.010814
 **** Fit      -0.010494
 **** Fit      -0.010060
 **** Fit      -0.009603
 **** Fit      -0.009229
 **** Fit      -0.009016
 **** Fit      -0.008977
 **** Fit      -0.009057
 **** Fit      -0.009171
 **** Fit      -0.009246
 **** Fit      -0.009335
 **** Fit      -0.009032
 **** Fit      -0.008648
 **** Fit      -0.008256
 **** Fit      -0.007943
 **** Fit      -0.007770
 **** Fit      -0.007746
 **** Fit      -0.007826
 **** Fit      -0.007942
 **** Fit      -0.008032
 **** Fit      -0.008112
 **** Fit      -0.007857
 **** Fit      -0.007546
 **** Fit      -0.007236
 **** Fit      -0.006987
 **** Fit      -0.006845
 **** Fit      -0.006814
 **** Fit      -0.006865
 **** Fit      -0.006948
 **** Fit      -0.006884
 **** Fit      -0.006646
 **** Fit      -0.006411
 **** Fit      -0.006219
 **** Fit      -0.006099
 **** Fit      -0.006055
 **** Fit      -0.006070
 **** Fit      -0.006111
 **** Fit      -0.005692
 **** Fit      -0.005542
 **** Fit      -0.005438
 **** Fit      -0.005383
 **** Fit      -0.018622
 **** Fit      -0.018525
 **** Fit      -0.018283
 **** Fit      -0.017930
 **** Fit      -0.017492
 **** Fit      -0.016189
 **** Fit      -0.016007
 **** Fit      -0.015743
 **** Fit      -0.015437
 **** Fit      -0.015110
 **** Fit      -0.014761
 **** Fit      -0.014109
 **** Fit      -0.013955
 **** Fit      -0.013714
 **** Fit      -0.013442
 **** Fit      -0.013181
 **** Fit      -0.012948
 **** Fit      -0.012732
 **** Fit      -0.012503
 **** Fit      -0.012217
 **** Fit      -0.012003
 **** Fit      -0.011735
 **** Fit      -0.011470
 **** Fit      -0.011250
 **** Fit      -0.011089
 **** Fit      -0.010968
 **** Fit      -0.010852
 **** Fit      -0.010595
 **** Fit      -0.010362
 **** Fit      -0.010097
 **** Fit      -0.009853
 **** Fit      -0.009669
 **** Fit      -0.009555
 **** Fit      -0.009492
 **** Fit      -0.009442
 **** Fit      -0.009010
 **** Fit      -0.008771
 **** Fit      -0.008558
 **** Fit      -0.008404
 **** Fit      -0.008317
 **** Fit      -0.008278
 **** Fit      -0.007693
 **** Fit      -0.007515
 **** Fit      -0.007385
 **** Fit      -0.007310
 -----------------------------------------------------------------
 Leave Link  602 at Wed Jan 12 18:10:37 2022, MaxMem=   104857600 cpu:               6.7 elap:               6.7
 (Enter /mnt/gpfs3_amd/share/apps/amd/gaussian/g16-A.03/g16/l9999.exe)

 Test job not archived.
 1\1\GINC-ROME039\SP\RB3LYP\6-311++G(d,p)\C11H13N1O2\MNG228\12-Jan-2022
 \0\\#P B3LYP/6-311++G(d,p) Geom=Allcheck SCF=Tight EmpiricalDispersion
 =GD3BJ Pop=CHELPG SP IOp(6/33=2)\\MAA1-VP1 geo opt\\0,1\C,0,20.2996318
 184,12.1475330771,12.2919098765\C,0,20.7425897152,10.7220515248,12.460
 955476\C,0,21.6649621188,10.3362539587,13.3462491963\C,0,20.1651359506
 ,9.7500240529,11.4617048923\O,0,19.8724064679,10.1108511335,10.3453830
 881\O,0,20.014152041,8.4767978222,11.8422788159\H,0,20.5105922973,12.4
 863253729,11.2753916521\H,0,20.8040293848,12.8024344913,13.0042177976\
 H,0,19.2181465682,12.2381836669,12.4326206498\H,0,22.1388970192,11.054
 4957918,14.0069504745\H,0,21.996639611,9.3084431357,13.421647141\H,0,2
 0.0817906932,8.3374153415,12.8262833122\C,0,19.0630136516,6.2645404047
 ,19.3858913953\C,0,19.1658643494,5.71428355,18.1739570625\C,0,19.43265
 84879,6.4209101246,16.9142906867\C,0,19.6004938197,7.8105453483,16.822
 5716616\C,0,19.8521163779,8.3873909525,15.5882998758\N,0,19.9458744555
 ,7.6819574523,14.4523164307\C,0,19.7813603614,6.3575236247,14.52738920
 59\C,0,19.5292577231,5.693742068,15.7215167669\H,0,18.8632264464,5.653
 9036062,20.2575035717\H,0,19.1722590825,7.3292803591,19.5568784942\H,0
 ,19.0462390935,4.6385425413,18.0779842917\H,0,19.5356744073,8.44258394
 75,17.698564284\H,0,19.9883341859,9.4590115321,15.4916796076\H,0,19.85
 30372386,5.8128421815,13.5916535384\H,0,19.406616634,4.6171329379,15.7
 239107547\\Version=AM64L-G16RevA.03\State=1-A\HF=-632.4058537\RMSD=5.6
 24e-09\Dipole=0.1009685,-0.7846435,3.2948556\Quadrupole=-0.1993985,11.
 0206897,-10.8212912,2.2926585,-3.1027708,1.6463655\PG=C01 [X(C11H13N1O
 2)]\\@


 WE HAVE LEARNED THAT NOTHING IS SIMPLE AND
 RATIONAL EXCEPT WHAT WE OURSELVES HAVE INVENTED;
 THAT GOD THINKS IN TERMS NEITHER OF EUCLID OR RIEMANN; THAT SCIENCE HAS "EXPLAINED" NOTHING;
 THAT THE MORE WE KNOW THE MORE FANTASTIC THE WORLD BECOMES
 AND THE PROFOUNDER THE SURROUNDING DARKNESS.
   --  ALDOUS HUXLEY
 Job cpu time:       0 days  0 hours 27 minutes 28.3 seconds.
 Elapsed time:       0 days  0 hours 27 minutes 31.9 seconds.
 File lengths (MBytes):  RWF=    200 Int=      0 D2E=      0 Chk=     24 Scr=     16
 Normal termination of Gaussian 16 at Wed Jan 12 18:10:37 2022.
