 Entering Gaussian System, Link 0=g16
 Initial command:
 /opt/ohpc/pub/libs/gaussian/g16-A.03/haswell/g16/l1.exe "g16_scratch/Gau-368608.inp" -scrdir="g16_scratch/"
 Entering Link 1 = /opt/ohpc/pub/libs/gaussian/g16-A.03/haswell/g16/l1.exe PID=    368609.
  
 Copyright (c) 1988,1990,1992,1993,1995,1998,2003,2009,2016,
            Gaussian, Inc.  All Rights Reserved.
  
 This is part of the Gaussian(R) 16 program.  It is based on
 the Gaussian(R) 09 system (copyright 2009, Gaussian, Inc.),
 the Gaussian(R) 03 system (copyright 2003, Gaussian, Inc.),
 the Gaussian(R) 98 system (copyright 1998, Gaussian, Inc.),
 the Gaussian(R) 94 system (copyright 1995, Gaussian, Inc.),
 the Gaussian 92(TM) system (copyright 1992, Gaussian, Inc.),
 the Gaussian 90(TM) system (copyright 1990, Gaussian, Inc.),
 the Gaussian 88(TM) system (copyright 1988, Gaussian, Inc.),
 the Gaussian 86(TM) system (copyright 1986, Carnegie Mellon
 University), and the Gaussian 82(TM) system (copyright 1983,
 Carnegie Mellon University). Gaussian is a federally registered
 trademark of Gaussian, Inc.
  
 This software contains proprietary and confidential information,
 including trade secrets, belonging to Gaussian, Inc.
  
 This software is provided under written license and may be
 used, copied, transmitted, or stored only in accord with that
 written license.
  
 The following legend is applicable only to US Government
 contracts under FAR:
  
                    RESTRICTED RIGHTS LEGEND
  
 Use, reproduction and disclosure by the US Government is
 subject to restrictions as set forth in subparagraphs (a)
 and (c) of the Commercial Computer Software - Restricted
 Rights clause in FAR 52.227-19.
  
 Gaussian, Inc.
 340 Quinnipiac St., Bldg. 40, Wallingford CT 06492
  
  
 ---------------------------------------------------------------
 Warning -- This program may not be used in any manner that
 competes with the business of Gaussian, Inc. or will provide
 assistance to any competitor of Gaussian, Inc.  The licensee
 of this program is prohibited from giving any competitor of
 Gaussian, Inc. access to this program.  By using this program,
 the user acknowledges that Gaussian, Inc. is engaged in the
 business of creating and licensing software in the field of
 computational chemistry and represents and warrants to the
 licensee that it is not a competitor of Gaussian, Inc. and that
 it will not use this program in any manner prohibited above.
 ---------------------------------------------------------------
  

 Cite this work as:
 Gaussian 16, Revision A.03,
 M. J. Frisch, G. W. Trucks, H. B. Schlegel, G. E. Scuseria, 
 M. A. Robb, J. R. Cheeseman, G. Scalmani, V. Barone, 
 G. A. Petersson, H. Nakatsuji, X. Li, M. Caricato, A. V. Marenich, 
 J. Bloino, B. G. Janesko, R. Gomperts, B. Mennucci, H. P. Hratchian, 
 J. V. Ortiz, A. F. Izmaylov, J. L. Sonnenberg, D. Williams-Young, 
 F. Ding, F. Lipparini, F. Egidi, J. Goings, B. Peng, A. Petrone, 
 T. Henderson, D. Ranasinghe, V. G. Zakrzewski, J. Gao, N. Rega, 
 G. Zheng, W. Liang, M. Hada, M. Ehara, K. Toyota, R. Fukuda, 
 J. Hasegawa, M. Ishida, T. Nakajima, Y. Honda, O. Kitao, H. Nakai, 
 T. Vreven, K. Throssell, J. A. Montgomery, Jr., J. E. Peralta, 
 F. Ogliaro, M. J. Bearpark, J. J. Heyd, E. N. Brothers, K. N. Kudin, 
 V. N. Staroverov, T. A. Keith, R. Kobayashi, J. Normand, 
 K. Raghavachari, A. P. Rendell, J. C. Burant, S. S. Iyengar, 
 J. Tomasi, M. Cossi, J. M. Millam, M. Klene, C. Adamo, R. Cammi, 
 J. W. Ochterski, R. L. Martin, K. Morokuma, O. Farkas, 
 J. B. Foresman, and D. J. Fox, Gaussian, Inc., Wallingford CT, 2016.
 
 ******************************************
 Gaussian 16:  ES64L-G16RevA.03 25-Dec-2016
                21-Apr-2022 
 ******************************************
 %Mem=192GB
 %NProcShared=48
 Will use up to   48 processors via shared memory.
 %Chk=1VI-3.chk
 ---------------------------------------------------------------------
 #n B3LYP/6-311++G(d,p) Opt freq EmpiricalDispersion=GD3BJ IOp(6/33=2)
 ---------------------------------------------------------------------
 1/18=20,19=15,26=3,38=1/1,3;
 2/9=110,12=2,17=6,18=5,40=1/2;
 3/5=4,6=6,7=1111,11=2,25=1,30=1,71=1,74=-5,124=41/1,2,3;
 4//1;
 5/5=2,38=5/2;
 6/7=2,8=2,9=2,10=2,28=1,33=2/1;
 7//1,2,3,16;
 1/18=20,19=15,26=3/3(2);
 2/9=110/2;
 99//99;
 2/9=110/2;
 3/5=4,6=6,7=1111,11=2,25=1,30=1,71=1,74=-5,124=41/1,2,3;
 4/5=5,16=3,69=1/1;
 5/5=2,38=5/2;
 7//1,2,3,16;
 1/18=20,19=15,26=3/3(-5);
 2/9=110/2;
 6/7=2,8=2,9=2,10=2,19=2,28=1,33=2/1;
 99/9=1/99;
 -----------
 1VI geo opt
 -----------
 Symbolic Z-matrix:
 Charge =  0 Multiplicity = 1
 H                     0.9644   -0.7727   -0.0231 
 C                     2.0376   -0.8987    0.0961 
 H                     2.3789   -1.2919    1.0468 
 C                     2.8696   -0.5664   -0.901 
 H                     2.4502   -0.1711   -1.8229 
 N                     4.2608   -0.6617   -0.8973 
 C                     5.1395   -0.5586    0.1623 
 H                     4.8027   -0.3982    1.1771 
 N                     6.3973   -0.6743   -0.2034 
 C                     6.3547   -0.8719   -1.5538 
 H                     7.2598   -0.9984   -2.1337 
 C                     5.0566   -0.8814   -2.0027 
 H                     4.6384   -1.012    -2.9903 
 

 GradGradGradGradGradGradGradGradGradGradGradGradGradGradGradGradGradGrad
 Berny optimization.
 Initialization pass.
                           ----------------------------
                           !    Initial Parameters    !
                           ! (Angstroms and Degrees)  !
 --------------------------                            --------------------------
 ! Name  Definition              Value          Derivative Info.                !
 --------------------------------------------------------------------------------
 ! R1    R(1,2)                  1.0871         estimate D2E/DX2                !
 ! R2    R(2,3)                  1.0839         estimate D2E/DX2                !
 ! R3    R(2,4)                  1.3405         estimate D2E/DX2                !
 ! R4    R(4,5)                  1.0872         estimate D2E/DX2                !
 ! R5    R(4,6)                  1.3945         estimate D2E/DX2                !
 ! R6    R(6,7)                  1.3804         estimate D2E/DX2                !
 ! R7    R(6,12)                 1.3797         estimate D2E/DX2                !
 ! R8    R(7,8)                  1.0812         estimate D2E/DX2                !
 ! R9    R(7,9)                  1.315          estimate D2E/DX2                !
 ! R10   R(9,10)                 1.3654         estimate D2E/DX2                !
 ! R11   R(10,11)                1.0824         estimate D2E/DX2                !
 ! R12   R(10,12)                1.3736         estimate D2E/DX2                !
 ! R13   R(12,13)                1.0804         estimate D2E/DX2                !
 ! A1    A(1,2,3)              116.6827         estimate D2E/DX2                !
 ! A2    A(1,2,4)              120.1613         estimate D2E/DX2                !
 ! A3    A(3,2,4)              123.1548         estimate D2E/DX2                !
 ! A4    A(2,4,5)              118.7794         estimate D2E/DX2                !
 ! A5    A(2,4,6)              126.8921         estimate D2E/DX2                !
 ! A6    A(5,4,6)              114.3272         estimate D2E/DX2                !
 ! A7    A(4,6,7)              129.1977         estimate D2E/DX2                !
 ! A8    A(4,6,12)             125.7474         estimate D2E/DX2                !
 ! A9    A(7,6,12)             105.0544         estimate D2E/DX2                !
 ! A10   A(6,7,8)              122.2257         estimate D2E/DX2                !
 ! A11   A(6,7,9)              112.8817         estimate D2E/DX2                !
 ! A12   A(8,7,9)              124.8925         estimate D2E/DX2                !
 ! A13   A(7,9,10)             104.9472         estimate D2E/DX2                !
 ! A14   A(9,10,11)            121.379          estimate D2E/DX2                !
 ! A15   A(9,10,12)            110.7138         estimate D2E/DX2                !
 ! A16   A(11,10,12)           127.9072         estimate D2E/DX2                !
 ! A17   A(6,12,10)            106.3898         estimate D2E/DX2                !
 ! A18   A(6,12,13)            121.8948         estimate D2E/DX2                !
 ! A19   A(10,12,13)           131.7117         estimate D2E/DX2                !
 ! D1    D(1,2,4,5)              0.0341         estimate D2E/DX2                !
 ! D2    D(1,2,4,6)            179.5941         estimate D2E/DX2                !
 ! D3    D(3,2,4,5)           -179.5494         estimate D2E/DX2                !
 ! D4    D(3,2,4,6)              0.0107         estimate D2E/DX2                !
 ! D5    D(2,4,6,7)            -29.9995         estimate D2E/DX2                !
 ! D6    D(2,4,6,12)           150.2965         estimate D2E/DX2                !
 ! D7    D(5,4,6,7)            149.5773         estimate D2E/DX2                !
 ! D8    D(5,4,6,12)           -30.1266         estimate D2E/DX2                !
 ! D9    D(4,6,7,8)              1.2073         estimate D2E/DX2                !
 ! D10   D(4,6,7,9)           -178.7194         estimate D2E/DX2                !
 ! D11   D(12,6,7,8)          -179.0416         estimate D2E/DX2                !
 ! D12   D(12,6,7,9)             1.0318         estimate D2E/DX2                !
 ! D13   D(4,6,12,10)          178.6276         estimate D2E/DX2                !
 ! D14   D(4,6,12,13)           -0.7466         estimate D2E/DX2                !
 ! D15   D(7,6,12,10)           -1.1348         estimate D2E/DX2                !
 ! D16   D(7,6,12,13)          179.491          estimate D2E/DX2                !
 ! D17   D(6,7,9,10)            -0.469          estimate D2E/DX2                !
 ! D18   D(8,7,9,10)           179.6066         estimate D2E/DX2                !
 ! D19   D(7,9,10,11)          179.7798         estimate D2E/DX2                !
 ! D20   D(7,9,10,12)           -0.296          estimate D2E/DX2                !
 ! D21   D(9,10,12,6)            0.9241         estimate D2E/DX2                !
 ! D22   D(9,10,12,13)        -179.7876         estimate D2E/DX2                !
 ! D23   D(11,10,12,6)        -179.1579         estimate D2E/DX2                !
 ! D24   D(11,10,12,13)          0.1304         estimate D2E/DX2                !
 --------------------------------------------------------------------------------
 Trust Radius=3.00D-01 FncErr=1.00D-07 GrdErr=1.00D-06 EigMax=2.50D+02 EigMin=1.00D-04
 Number of steps in this run=     66 maximum allowed number of steps=    100.
 GradGradGradGradGradGradGradGradGradGradGradGradGradGradGradGradGradGrad

                          Input orientation:                          
 ---------------------------------------------------------------------
 Center     Atomic      Atomic             Coordinates (Angstroms)
 Number     Number       Type             X           Y           Z
 ---------------------------------------------------------------------
      1          1           0        0.964400   -0.772700   -0.023100
      2          6           0        2.037600   -0.898700    0.096100
      3          1           0        2.378900   -1.291900    1.046800
      4          6           0        2.869600   -0.566400   -0.901000
      5          1           0        2.450200   -0.171100   -1.822900
      6          7           0        4.260800   -0.661700   -0.897300
      7          6           0        5.139500   -0.558600    0.162300
      8          1           0        4.802700   -0.398200    1.177100
      9          7           0        6.397300   -0.674300   -0.203400
     10          6           0        6.354700   -0.871900   -1.553800
     11          1           0        7.259800   -0.998400   -2.133700
     12          6           0        5.056600   -0.881400   -2.002700
     13          1           0        4.638400   -1.012000   -2.990300
 ---------------------------------------------------------------------
                    Distance matrix (angstroms):
                    1          2          3          4          5
     1  H    0.000000
     2  C    1.087126   0.000000
     3  H    1.847989   1.083938   0.000000
     4  C    2.107856   1.340468   2.135664   0.000000
     5  H    2.410146   2.093371   3.081632   1.087225   0.000000
     6  N    3.412155   2.446555   2.778169   1.394465   2.091816
     7  C    4.184695   3.121191   2.990147   2.506614   3.365042
     8  H    4.038970   3.010787   2.586597   2.843179   3.819140
     9  N    5.436781   4.375733   4.253465   3.597632   4.295997
    10  C    5.604303   4.621714   4.769330   3.558848   3.976010
    11  H    6.643616   5.679201   5.833087   4.580396   4.890120
    12  C    4.547168   3.676904   4.078975   2.468995   2.707430
    13  H    4.728617   4.037680   4.634853   2.773515   2.618808
                    6          7          8          9         10
     6  N    0.000000
     7  C    1.380397   0.000000
     8  H    2.160144   1.081194   0.000000
     9  N    2.246394   1.314984   2.127148   0.000000
    10  C    2.204449   2.125998   3.176619   1.365445   0.000000
    11  H    3.261296   3.156060   4.166411   2.138926   1.082355
    12  C    1.379665   2.190502   3.226310   2.253408   1.373559
    13  H    2.155444   3.224215   4.215563   3.312791   2.242509
                   11         12         13
    11  H    0.000000
    12  C    2.210190   0.000000
    13  H    2.757841   1.080417   0.000000
 Stoichiometry    C5H6N2
 Framework group  C1[X(C5H6N2)]
 Deg. of freedom    33
 Full point group                 C1      NOp   1
 Largest Abelian subgroup         C1      NOp   1
 Largest concise Abelian subgroup C1      NOp   1
                         Standard orientation:                         
 ---------------------------------------------------------------------
 Center     Atomic      Atomic             Coordinates (Angstroms)
 Number     Number       Type             X           Y           Z
 ---------------------------------------------------------------------
      1          1           0        3.626220    0.046370    0.058357
      2          6           0        2.602288   -0.291942    0.196021
      3          1           0        2.468937   -1.271941    0.639576
      4          6           0        1.579027    0.486651   -0.182904
      5          1           0        1.794830    1.455071   -0.627483
      6          7           0        0.219980    0.191741   -0.080179
      7          6           0       -0.412363   -1.034528   -0.123789
      8          1           0        0.133701   -1.961236   -0.233366
      9          7           0       -1.719837   -0.939556   -0.020468
     10          6           0       -1.966875    0.397300    0.106926
     11          1           0       -2.975409    0.776923    0.208108
     12          6           0       -0.794188    1.112177    0.086370
     13          1           0       -0.596610    2.171564    0.163596
 ---------------------------------------------------------------------
 Rotational constants (GHZ):           8.2146371           2.0760177           1.6825518
 Standard basis: 6-311++G(d,p) (5D, 7F)
 There are   203 symmetry adapted cartesian basis functions of A   symmetry.
 There are   196 symmetry adapted basis functions of A   symmetry.
   196 basis functions,   306 primitive gaussians,   203 cartesian basis functions
    25 alpha electrons       25 beta electrons
       nuclear repulsion energy       274.7527488472 Hartrees.
 NAtoms=   13 NActive=   13 NUniq=   13 SFac= 1.00D+00 NAtFMM=   60 NAOKFM=F Big=F
 Integral buffers will be    131072 words long.
 Raffenetti 2 integral format.
 Two-electron integral symmetry is turned on.
 Nuclear repulsion after empirical dispersion term =      274.7334613961 Hartrees.
 One-electron integrals computed using PRISM.
 NBasis=   196 RedAO= T EigKep=  2.02D-05  NBF=   196
 NBsUse=   196 1.00D-06 EigRej= -1.00D+00 NBFU=   196
 ExpMin= 3.60D-02 ExpMax= 6.29D+03 ExpMxC= 9.49D+02 IAcc=3 IRadAn=         5 AccDes= 0.00D+00
 Harris functional with IExCor=  402 and IRadAn=       5 diagonalized for initial guess.
 HarFok:  IExCor=  402 AccDes= 0.00D+00 IRadAn=         5 IDoV= 1 UseB2=F ITyADJ=14
 ICtDFT=  3500011 ScaDFX=  1.000000  1.000000  1.000000  1.000000
 FoFCou: FMM=F IPFlag=           0 FMFlag=      100000 FMFlg1=           0
         NFxFlg=           0 DoJE=T BraDBF=F KetDBF=T FulRan=T
         wScrn=  0.000000 ICntrl=       500 IOpCl=  0 I1Cent=   200000004 NGrid=           0
         NMat0=    1 NMatS0=      1 NMatT0=    0 NMatD0=    1 NMtDS0=    0 NMtDT0=    0
 Petite list used in FoFCou.
 Requested convergence on RMS density matrix=1.00D-08 within 128 cycles.
 Requested convergence on MAX density matrix=1.00D-06.
 Requested convergence on             energy=1.00D-06.
 No special actions if energy rises.
 SCF Done:  E(RB3LYP) =  -303.711336231     A.U. after   13 cycles
            NFock= 13  Conv=0.57D-08     -V/T= 2.0044
 SCF density gives NOpUse=  1 NOpAll=  1.

 **********************************************************************

            Population analysis using the SCF density.

 **********************************************************************

 Orbital symmetries:
 BldTbl:  Degeneracy threshold= 1.00D-02
       Occupied  (A) (A) (A) (A) (A) (A) (A) (A) (A) (A) (A) (A)
                 (A) (A) (A) (A) (A) (A) (A) (A) (A) (A) (A) (A)
                 (A)
       Virtual   (A) (A) (A) (A) (A) (A) (A) (A) (A) (A) (A) (A)
                 (A) (A) (A) (A) (A) (A) (A) (A) (A) (A) (A) (A)
                 (A) (A) (A) (A) (A) (A) (A) (A) (A) (A) (A) (A)
                 (A) (A) (A) (A) (A) (A) (A) (A) (A) (A) (A) (A)
                 (A) (A) (A) (A) (A) (A) (A) (A) (A) (A) (A) (A)
                 (A) (A) (A) (A) (A) (A) (A) (A) (A) (A) (A) (A)
                 (A) (A) (A) (A) (A) (A) (A) (A) (A) (A) (A) (A)
                 (A) (A) (A) (A) (A) (A) (A) (A) (A) (A) (A) (A)
                 (A) (A) (A) (A) (A) (A) (A) (A) (A) (A) (A) (A)
                 (A) (A) (A) (A) (A) (A) (A) (A) (A) (A) (A) (A)
                 (A) (A) (A) (A) (A) (A) (A) (A) (A) (A) (A) (A)
                 (A) (A) (A) (A) (A) (A) (A) (A) (A) (A) (A) (A)
                 (A) (A) (A) (A) (A) (A) (A) (A) (A) (A) (A) (A)
                 (A) (A) (A) (A) (A) (A) (A) (A) (A) (A) (A) (A)
                 (A) (A) (A)
 The electronic state is 1-A.
 Alpha  occ. eigenvalues --  -14.39319 -14.30418 -10.24083 -10.23309 -10.20822
 Alpha  occ. eigenvalues --  -10.19255 -10.19208  -1.03794  -0.91183  -0.79008
 Alpha  occ. eigenvalues --   -0.74736  -0.66365  -0.61090  -0.57843  -0.54220
 Alpha  occ. eigenvalues --   -0.49024  -0.46120  -0.45259  -0.43370  -0.41900
 Alpha  occ. eigenvalues --   -0.40447  -0.33870  -0.28402  -0.26664  -0.24050
 Alpha virt. eigenvalues --   -0.04328  -0.01116   0.00352   0.00832   0.01744
 Alpha virt. eigenvalues --    0.02780   0.03555   0.03981   0.04925   0.05783
 Alpha virt. eigenvalues --    0.06103   0.07077   0.08418   0.08568   0.10056
 Alpha virt. eigenvalues --    0.10705   0.11110   0.11707   0.12316   0.12594
 Alpha virt. eigenvalues --    0.13214   0.13555   0.13947   0.14171   0.15190
 Alpha virt. eigenvalues --    0.15612   0.16933   0.17151   0.17773   0.19710
 Alpha virt. eigenvalues --    0.20275   0.21955   0.22546   0.23712   0.23989
 Alpha virt. eigenvalues --    0.24829   0.26067   0.27138   0.27467   0.28158
 Alpha virt. eigenvalues --    0.29165   0.29805   0.31124   0.33114   0.34989
 Alpha virt. eigenvalues --    0.35322   0.36846   0.41849   0.44247   0.46010
 Alpha virt. eigenvalues --    0.48707   0.51721   0.52522   0.52978   0.56155
 Alpha virt. eigenvalues --    0.57126   0.58451   0.59195   0.61478   0.62930
 Alpha virt. eigenvalues --    0.65815   0.67503   0.68949   0.69710   0.71581
 Alpha virt. eigenvalues --    0.71647   0.72801   0.75981   0.78139   0.79890
 Alpha virt. eigenvalues --    0.81490   0.83884   0.86531   0.89418   0.89797
 Alpha virt. eigenvalues --    0.91100   0.91861   0.92860   0.98260   1.00381
 Alpha virt. eigenvalues --    1.03173   1.04785   1.07389   1.08455   1.13800
 Alpha virt. eigenvalues --    1.16408   1.19485   1.22984   1.26687   1.31157
 Alpha virt. eigenvalues --    1.33341   1.40772   1.44626   1.49896   1.51838
 Alpha virt. eigenvalues --    1.53345   1.54881   1.61758   1.62580   1.63042
 Alpha virt. eigenvalues --    1.66435   1.69993   1.72157   1.73471   1.75044
 Alpha virt. eigenvalues --    1.76978   1.78322   1.83357   1.84353   1.88027
 Alpha virt. eigenvalues --    1.89560   1.98807   2.02513   2.05042   2.07468
 Alpha virt. eigenvalues --    2.09084   2.12694   2.17502   2.20253   2.24433
 Alpha virt. eigenvalues --    2.27777   2.34770   2.40175   2.41842   2.43135
 Alpha virt. eigenvalues --    2.50308   2.55929   2.57405   2.57750   2.59860
 Alpha virt. eigenvalues --    2.60874   2.65388   2.67078   2.71667   2.74228
 Alpha virt. eigenvalues --    2.75294   2.76859   2.78981   2.80274   2.80698
 Alpha virt. eigenvalues --    2.87336   2.90050   2.92129   2.94105   2.98732
 Alpha virt. eigenvalues --    3.11473   3.20173   3.29512   3.38435   3.45381
 Alpha virt. eigenvalues --    3.58314   3.59148   3.63625   3.69777   3.77525
 Alpha virt. eigenvalues --    3.82476   3.87574   3.92858   4.07013   4.10499
 Alpha virt. eigenvalues --    4.48271   4.75365   5.07266   5.25588  23.73275
 Alpha virt. eigenvalues --   23.80633  23.91368  24.14173  24.19918  35.50014
 Alpha virt. eigenvalues --   35.66701
          Condensed to atoms (all electrons):
               1          2          3          4          5          6
     1  H    0.525858   0.414151  -0.030135  -0.061510  -0.009986   0.023701
     2  C    0.414151   5.405103   0.391382   0.305394  -0.069931  -0.064259
     3  H   -0.030135   0.391382   0.543612  -0.012220   0.007762  -0.020231
     4  C   -0.061510   0.305394  -0.012220   5.344625   0.445821   0.162705
     5  H   -0.009986  -0.069931   0.007762   0.445821   0.533141  -0.066278
     6  N    0.023701  -0.064259  -0.020231   0.162705  -0.066278   6.794526
     7  C    0.000470  -0.013649  -0.005896  -0.077737  -0.009424   0.137808
     8  H   -0.000037  -0.010920  -0.005417   0.021213   0.000052  -0.118400
     9  N    0.000174  -0.003810   0.002233   0.026402   0.000737   0.021809
    10  C   -0.002394  -0.014680  -0.001637   0.036168  -0.000921  -0.156851
    11  H   -0.000093  -0.000472  -0.000001   0.001046  -0.000126   0.015161
    12  C    0.003227  -0.011237  -0.004239  -0.120015   0.001932   0.227191
    13  H    0.000388   0.003667  -0.000099  -0.011833  -0.002039  -0.090260
               7          8          9         10         11         12
     1  H    0.000470  -0.000037   0.000174  -0.002394  -0.000093   0.003227
     2  C   -0.013649  -0.010920  -0.003810  -0.014680  -0.000472  -0.011237
     3  H   -0.005896  -0.005417   0.002233  -0.001637  -0.000001  -0.004239
     4  C   -0.077737   0.021213   0.026402   0.036168   0.001046  -0.120015
     5  H   -0.009424   0.000052   0.000737  -0.000921  -0.000126   0.001932
     6  N    0.137808  -0.118400   0.021809  -0.156851   0.015161   0.227191
     7  C    5.440347   0.450450   0.348991  -0.067133   0.024963  -0.086948
     8  H    0.450450   0.538933  -0.061096   0.016449  -0.000906   0.019782
     9  N    0.348991  -0.061096   6.588882   0.323447  -0.080718  -0.014083
    10  C   -0.067133   0.016449   0.323447   5.266286   0.479885   0.305341
    11  H    0.024963  -0.000906  -0.080718   0.479885   0.537656  -0.132057
    12  C   -0.086948   0.019782  -0.014083   0.305341  -0.132057   5.521613
    13  H    0.027746   0.001746   0.004412  -0.025994  -0.003918   0.432956
              13
     1  H    0.000388
     2  C    0.003667
     3  H   -0.000099
     4  C   -0.011833
     5  H   -0.002039
     6  N   -0.090260
     7  C    0.027746
     8  H    0.001746
     9  N    0.004412
    10  C   -0.025994
    11  H   -0.003918
    12  C    0.432956
    13  H    0.525069
 Mulliken charges:
               1
     1  H    0.136185
     2  C   -0.330739
     3  H    0.134885
     4  C   -0.060058
     5  H    0.169261
     6  N    0.133379
     7  C   -0.169988
     8  H    0.148150
     9  N   -0.157380
    10  C   -0.157968
    11  H    0.159579
    12  C   -0.143462
    13  H    0.138156
 Sum of Mulliken charges =  -0.00000
 Mulliken charges with hydrogens summed into heavy atoms:
               1
     2  C   -0.059669
     4  C    0.109202
     6  N    0.133379
     7  C   -0.021838
     9  N   -0.157380
    10  C    0.001611
    12  C   -0.005306
 DipInt: DoE/N= T F RetVal/Mat= T F Init=T NMatP=  1 IDeriv=0 Min/MaxMlt=  0  4
 Entering OneElI...
 OneElI was handed 25769695761 working-precision words.
 Multipole integrals L=0 to 4 MinM= 0 MaxM= 0.
 Requested accuracy = 0.1000D-12
 ShPair: Thresh= 1.00D-13 NBox=     0 BxSize= 0.00D+00 RnKept= 1.26D+01
         NSMCal=                 2628 NSMKep=                2560
 PrmmSu-InSpLW:  IPartL=    0 NPrtUS=    1 NPrtUL=    1 DoSpLW=F IThBeg=    0 IThEnd=    0 NThAct=    1.
 PrsmSu:  NPrtUS=   1 ThrOK=F IAlg=1 NPAlg=1 LenDen=           0 ISkipM=0 DoSpLW=F IThBeg=    0 IThEnd=    0.
 Prism:   IPart=     0 DynPar=F LinDyn=F Incr=          25.
 PRISM was handed 25769515844 working-precision words and  2560 shell-pairs
 IPart=  0 NShTot=        2560 NBatch=          58 AvBLen=        44.1
 PrsmSu-ThDecC:  IPartSL=    0    0 NPrtUSL=    1    1 IThBeg=    0 IThEnd=    0 CPU=   -1 GPU=   -1 NThAct=    1.
 PrSmSu:  NxtVal=             26.
 Electronic moments (au):
        -50.00000000          1.15959848          0.71501028         -0.03420097
       -517.75544789       -157.91362095        -39.16618912         -3.52311913
         -0.45289513         -0.63647920       -565.39099504          0.64598920
         -1.21392812        104.62616309         61.15636324        -78.87780921
        -15.66739954         -1.45183707          4.01668294         46.00623003
     -11526.19320055      -1380.73719093       -165.43131958        394.29735318
       -205.25834535         -8.93966449        -24.38926902         -2.87861807
          2.66997373      -1191.74971537       -467.36032507       -158.27652796
         85.75641819         10.21496111          8.23395904
 Electronic spatial extent (au):  <R**2>=            714.8353
 DipInt: DoE/N= F T RetVal/Mat= T F Init=T NMatP=  1 IDeriv=0 Min/MaxMlt=  0  4
 Nuclear    moments (au):
         50.00000000          0.00000000          0.00000000         -0.00000000
        486.89555800        128.78052899          5.76810174          0.00000000
          0.00000000          0.00000000        585.11382841          6.48893192
          0.13545296        -92.41328008        -43.42499929         80.98659475
         15.55346759          0.37722074         -4.41091753        -50.86342640
       9755.83831055        848.60169875          4.41640225       -464.15277052
        195.14166728        -24.49684965         23.19399906          2.78291845
         -8.46160776        746.46066077         83.94144070         26.69449887
       -103.06633199        -14.03292537         -6.03175644
 Total      moments (au):
         -0.00000000          1.15959848          0.71501028         -0.03420097
        -30.85988989        -29.13309196        -33.39808737         -3.52311913
         -0.45289513         -0.63647920         19.72283337          7.13492111
         -1.07847516         12.21288301         17.73136394          2.10878554
         -0.11393195         -1.07461633         -0.39423460         -4.85719637
      -1770.35489000       -532.13549218       -161.01491732        -69.85541734
        -10.11667806        -33.43651414         -1.19526996         -0.09569963
         -5.79163404       -445.28905460       -383.41888437       -131.58202909
        -17.30991381         -3.81796426          2.20220260
 Traceless Quadrup. (au):
          0.27046652          1.99726445         -2.26773096         -3.52311913
         -0.45289513         -0.63647920
 Charge=             -0.0000 electrons
 Dipole moment (field-independent basis, Debye):
    X=              2.9474    Y=              1.8174    Z=             -0.0869  Tot=              3.4638
 Quadrupole moment (field-independent basis, Debye-Ang):
   XX=            -41.5076   YY=            -39.1850   ZZ=            -44.9216
   XY=             -4.7387   XZ=             -0.6092   YZ=             -0.8561
 Traceless Quadrupole moment (field-independent basis, Debye-Ang):
   XX=              0.3638   YY=              2.6864   ZZ=             -3.0502
   XY=             -4.7387   XZ=             -0.6092   YZ=             -0.8561
 Octapole moment (field-independent basis, Debye-Ang**2):
  XXX=             14.0380  YYY=              5.0784  ZZZ=             -0.7676  XYY=              8.6927
  XXY=             12.6205  XXZ=              1.5010  XZZ=             -0.0811  YZZ=             -0.7649
  YYZ=             -0.2806  XYZ=             -3.4572
 Hexadecapole moment (field-independent basis, Debye-Ang**3):
 XXXX=           -666.8005 YYYY=           -200.4277 ZZZZ=            -60.6459 XXXY=            -26.3109
 XXXZ=             -3.8104 YYYX=            -12.5938 YYYZ=             -0.4502 ZZZX=             -0.0360
 ZZZY=             -2.1814 XXYY=           -167.7172 XXZZ=           -144.4139 YYZZ=            -49.5601
 XXYZ=             -6.5197 YYXZ=             -1.4380 ZZXY=              0.8295
 N-N= 2.747334613961D+02 E-N=-1.255258850023D+03  KE= 3.023892849825D+02
 Entering OneElI...
 OneElI was handed 25769718726 working-precision words.
 Calculate electrostatic properties
    NBasis =   196  MinDer = 0  MaxDer = 0
    NGrid  =    13  NMatD  =   1
 Requested accuracy = 0.1000D-12
 ShPair: Thresh= 1.00D-13 NBox=     0 BxSize= 0.00D+00 RnKept= 1.26D+01
         NSMCal=                 2628 NSMKep=                2476
 PrmmSu-InSpLW:  IPartL=    0 NPrtUS=   48 NPrtUL=    1 DoSpLW=F IThBeg=    0 IThEnd=   47 NThAct=   48.
 PrsmSu:  NPrtUS=  48 ThrOK=T IAlg=1 NPAlg=1 LenDen=           0 ISkipM=0 DoSpLW=F IThBeg=    0 IThEnd=   47.
 Prism:   IPart=     0 DynPar=F LinDyn=F Incr=           6.
 PRISM was handed   536810646 working-precision words and  2476 shell-pairs
 PRISM was handed   536810646 working-precision words and  2476 shell-pairs
 PRISM was handed   536810646 working-precision words and  2476 shell-pairs
 PRISM was handed   536810646 working-precision words and  2476 shell-pairs
 PRISM was handed   536810646 working-precision words and  2476 shell-pairs
 PRISM was handed   536810646 working-precision words and  2476 shell-pairs
 PRISM was handed   536810646 working-precision words and  2476 shell-pairs
 PRISM was handed   536810646 working-precision words and  2476 shell-pairs
 PRISM was handed   536810646 working-precision words and  2476 shell-pairs
 PRISM was handed   536810646 working-precision words and  2476 shell-pairs
 PRISM was handed   536810646 working-precision words and  2476 shell-pairs
 PRISM was handed   536810646 working-precision words and  2476 shell-pairs
 PRISM was handed   536810646 working-precision words and  2476 shell-pairs
 PRISM was handed   536810646 working-precision words and  2476 shell-pairs
 PRISM was handed   536810646 working-precision words and  2476 shell-pairs
 PRISM was handed   536810646 working-precision words and  2476 shell-pairs
 PRISM was handed   536810646 working-precision words and  2476 shell-pairs
 PRISM was handed   536810646 working-precision words and  2476 shell-pairs
 PRISM was handed   536810646 working-precision words and  2476 shell-pairs
 PRISM was handed   536810646 working-precision words and  2476 shell-pairs
 PRISM was handed   536810646 working-precision words and  2476 shell-pairs
 PRISM was handed   536810646 working-precision words and  2476 shell-pairs
 PRISM was handed   536810646 working-precision words and  2476 shell-pairs
 PRISM was handed   536810646 working-precision words and  2476 shell-pairs
 PRISM was handed   536810646 working-precision words and  2476 shell-pairs
 PRISM was handed   536810646 working-precision words and  2476 shell-pairs
 PRISM was handed   536810646 working-precision words and  2476 shell-pairs
 PRISM was handed   536810646 working-precision words and  2476 shell-pairs
 PRISM was handed   536810646 working-precision words and  2476 shell-pairs
 PRISM was handed   536810646 working-precision words and  2476 shell-pairs
 PRISM was handed   536810646 working-precision words and  2476 shell-pairs
 PRISM was handed   536810646 working-precision words and  2476 shell-pairs
 PRISM was handed   536810646 working-precision words and  2476 shell-pairs
 PRISM was handed   536810646 working-precision words and  2476 shell-pairs
 PRISM was handed   536810646 working-precision words and  2476 shell-pairs
 PRISM was handed   536810646 working-precision words and  2476 shell-pairs
 PRISM was handed   536810646 working-precision words and  2476 shell-pairs
 PRISM was handed   536810646 working-precision words and  2476 shell-pairs
 PRISM was handed   536810646 working-precision words and  2476 shell-pairs
 PRISM was handed   536810646 working-precision words and  2476 shell-pairs
 PRISM was handed   536810646 working-precision words and  2476 shell-pairs
 PRISM was handed   536810646 working-precision words and  2476 shell-pairs
 PRISM was handed   536810646 working-precision words and  2476 shell-pairs
 PRISM was handed   536810646 working-precision words and  2476 shell-pairs
 PRISM was handed   536810646 working-precision words and  2476 shell-pairs
 PRISM was handed   536810646 working-precision words and  2476 shell-pairs
 PRISM was handed   536810646 working-precision words and  2476 shell-pairs
 PRISM was handed   536810646 working-precision words and  2476 shell-pairs
 IPart= 46 NShTot=         494 NBatch=          38 AvBLen=        13.0
 PrsmSu-ThDecC:  IPartSL=   46    0 NPrtUSL=   48    1 IThBeg=    0 IThEnd=   47 CPU=   -1 GPU=   -1 NThAct=   48.
 IPart= 11 NShTot=         741 NBatch=          57 AvBLen=        13.0
 PrsmSu-ThDecC:  IPartSL=   11    0 NPrtUSL=   48    1 IThBeg=    0 IThEnd=   47 CPU=   -1 GPU=   -1 NThAct=   47.
 IPart=  0 NShTot=        1092 NBatch=          84 AvBLen=        13.0
 PrsmSu-ThDecC:  IPartSL=    0    0 NPrtUSL=   48    1 IThBeg=    0 IThEnd=   47 CPU=   -1 GPU=   -1 NThAct=   46.
 IPart=  5 NShTot=         858 NBatch=          66 AvBLen=        13.0
 PrsmSu-ThDecC:  IPartSL=    5    0 NPrtUSL=   48    1 IThBeg=    0 IThEnd=   47 CPU=   -1 GPU=   -1 NThAct=   45.
 IPart= 39 NShTot=         546 NBatch=          42 AvBLen=        13.0
 PrsmSu-ThDecC:  IPartSL=   39    0 NPrtUSL=   48    1 IThBeg=    0 IThEnd=   47 CPU=   -1 GPU=   -1 NThAct=   44.
 IPart= 16 NShTot=         676 NBatch=          52 AvBLen=        13.0
 PrsmSu-ThDecC:  IPartSL=   16    0 NPrtUSL=   48    1 IThBeg=    0 IThEnd=   47 CPU=   -1 GPU=   -1 NThAct=   43.
 IPart= 17 NShTot=         663 NBatch=          51 AvBLen=        13.0
 PrsmSu-ThDecC:  IPartSL=   17    0 NPrtUSL=   48    1 IThBeg=    0 IThEnd=   47 CPU=   -1 GPU=   -1 NThAct=   42.
 IPart= 47 NShTot=         481 NBatch=          37 AvBLen=        13.0
 PrsmSu-ThDecC:  IPartSL=   47    0 NPrtUSL=   48    1 IThBeg=    0 IThEnd=   47 CPU=   -1 GPU=   -1 NThAct=   41.
 IPart= 31 NShTot=         585 NBatch=          45 AvBLen=        13.0
 PrsmSu-ThDecC:  IPartSL=   31    0 NPrtUSL=   48    1 IThBeg=    0 IThEnd=   47 CPU=   -1 GPU=   -1 NThAct=   40.
 IPart=  1 NShTot=        1066 NBatch=          82 AvBLen=        13.0
 PrsmSu-ThDecC:  IPartSL=    1    0 NPrtUSL=   48    1 IThBeg=    0 IThEnd=   47 CPU=   -1 GPU=   -1 NThAct=   39.
 IPart= 44 NShTot=         494 NBatch=          38 AvBLen=        13.0
 PrsmSu-ThDecC:  IPartSL=   44    0 NPrtUSL=   48    1 IThBeg=    0 IThEnd=   47 CPU=   -1 GPU=   -1 NThAct=   38.
 IPart= 21 NShTot=         650 NBatch=          50 AvBLen=        13.0
 PrsmSu-ThDecC:  IPartSL=   21    0 NPrtUSL=   48    1 IThBeg=    0 IThEnd=   47 CPU=   -1 GPU=   -1 NThAct=   37.
 IPart=  8 NShTot=         754 NBatch=          58 AvBLen=        13.0
 PrsmSu-ThDecC:  IPartSL=    8    0 NPrtUSL=   48    1 IThBeg=    0 IThEnd=   47 CPU=   -1 GPU=   -1 NThAct=   36.
 IPart= 41 NShTot=         546 NBatch=          42 AvBLen=        13.0
 IPart= 43 NShTot=         520 NBatch=          40 AvBLen=        13.0
 IPart=  4 NShTot=         884 NBatch=          68 AvBLen=        13.0
 PrsmSu-ThDecC:  IPartSL=   41    0 NPrtUSL=   48    1 IThBeg=    0 IThEnd=   47 CPU=   -1 GPU=   -1 NThAct=   35.
 PrsmSu-ThDecC:  IPartSL=    4    0 NPrtUSL=   48    1 IThBeg=    0 IThEnd=   47 CPU=   -1 GPU=   -1 NThAct=   34.
 IPart= 30 NShTot=         585 NBatch=          45 AvBLen=        13.0
 PrsmSu-ThDecC:  IPartSL=   43    0 NPrtUSL=   48    1 IThBeg=    0 IThEnd=   47 CPU=   -1 GPU=   -1 NThAct=   33.
 PrsmSu-ThDecC:  IPartSL=   30    0 NPrtUSL=   48    1 IThBeg=    0 IThEnd=   47 CPU=   -1 GPU=   -1 NThAct=   32.
 IPart= 32 NShTot=         585 NBatch=          45 AvBLen=        13.0
 PrsmSu-ThDecC:  IPartSL=   32    0 NPrtUSL=   48    1 IThBeg=    0 IThEnd=   47 CPU=   -1 GPU=   -1 NThAct=   31.
 IPart= 24 NShTot=         650 NBatch=          50 AvBLen=        13.0
 PrsmSu-ThDecC:  IPartSL=   24    0 NPrtUSL=   48    1 IThBeg=    0 IThEnd=   47 CPU=   -1 GPU=   -1 NThAct=   30.
 IPart= 12 NShTot=         728 NBatch=          56 AvBLen=        13.0
 PrsmSu-ThDecC:  IPartSL=   12    0 NPrtUSL=   48    1 IThBeg=    0 IThEnd=   47 CPU=   -1 GPU=   -1 NThAct=   29.
 IPart= 27 NShTot=         624 NBatch=          48 AvBLen=        13.0
 PrsmSu-ThDecC:  IPartSL=   27    0 NPrtUSL=   48    1 IThBeg=    0 IThEnd=   47 CPU=   -1 GPU=   -1 NThAct=   28.
 IPart= 20 NShTot=         650 NBatch=          50 AvBLen=        13.0
 PrsmSu-ThDecC:  IPartSL=   20    0 NPrtUSL=   48    1 IThBeg=    0 IThEnd=   47 CPU=   -1 GPU=   -1 NThAct=   27.
 IPart= 18 NShTot=         650 NBatch=          50 AvBLen=        13.0
 PrsmSu-ThDecC:  IPartSL=   18    0 NPrtUSL=   48    1 IThBeg=    0 IThEnd=   47 CPU=   -1 GPU=   -1 NThAct=   26.
 IPart=  7 NShTot=         754 NBatch=          58 AvBLen=        13.0
 PrsmSu-ThDecC:  IPartSL=    7    0 NPrtUSL=   48    1 IThBeg=    0 IThEnd=   47 CPU=   -1 GPU=   -1 NThAct=   25.
 IPart= 14 NShTot=         715 NBatch=          55 AvBLen=        13.0
 PrsmSu-ThDecC:  IPartSL=   14    0 NPrtUSL=   48    1 IThBeg=    0 IThEnd=   47 CPU=   -1 GPU=   -1 NThAct=   24.
 IPart= 28 NShTot=         598 NBatch=          46 AvBLen=        13.0
 PrsmSu-ThDecC:  IPartSL=   28    0 NPrtUSL=   48    1 IThBeg=    0 IThEnd=   47 CPU=   -1 GPU=   -1 NThAct=   23.
 IPart= 25 NShTot=         637 NBatch=          49 AvBLen=        13.0
 PrsmSu-ThDecC:  IPartSL=   25    0 NPrtUSL=   48    1 IThBeg=    0 IThEnd=   47 CPU=   -1 GPU=   -1 NThAct=   22.
 IPart= 33 NShTot=         585 NBatch=          45 AvBLen=        13.0
 PrsmSu-ThDecC:  IPartSL=   33    0 NPrtUSL=   48    1 IThBeg=    0 IThEnd=   47 CPU=   -1 GPU=   -1 NThAct=   21.
 IPart= 45 NShTot=         494 NBatch=          38 AvBLen=        13.0
 PrsmSu-ThDecC:  IPartSL=   45    0 NPrtUSL=   48    1 IThBeg=    0 IThEnd=   47 CPU=   -1 GPU=   -1 NThAct=   20.
 IPart= 37 NShTot=         572 NBatch=          44 AvBLen=        13.0
 PrsmSu-ThDecC:  IPartSL=   37    0 NPrtUSL=   48    1 IThBeg=    0 IThEnd=   47 CPU=   -1 GPU=   -1 NThAct=   19.
 IPart= 23 NShTot=         650 NBatch=          50 AvBLen=        13.0
 PrsmSu-ThDecC:  IPartSL=   23    0 NPrtUSL=   48    1 IThBeg=    0 IThEnd=   47 CPU=   -1 GPU=   -1 NThAct=   18.
 IPart= 38 NShTot=         572 NBatch=          44 AvBLen=        13.0
 PrsmSu-ThDecC:  IPartSL=   38    0 NPrtUSL=   48    1 IThBeg=    0 IThEnd=   47 CPU=   -1 GPU=   -1 NThAct=   17.
 IPart=  3 NShTot=         949 NBatch=          73 AvBLen=        13.0
 PrsmSu-ThDecC:  IPartSL=    3    0 NPrtUSL=   48    1 IThBeg=    0 IThEnd=   47 CPU=   -1 GPU=   -1 NThAct=   16.
 IPart= 35 NShTot=         585 NBatch=          45 AvBLen=        13.0
 PrsmSu-ThDecC:  IPartSL=   35    0 NPrtUSL=   48    1 IThBeg=    0 IThEnd=   47 CPU=   -1 GPU=   -1 NThAct=   15.
 IPart= 22 NShTot=         650 NBatch=          50 AvBLen=        13.0
 PrsmSu-ThDecC:  IPartSL=   22    0 NPrtUSL=   48    1 IThBeg=    0 IThEnd=   47 CPU=   -1 GPU=   -1 NThAct=   14.
 IPart= 29 NShTot=         598 NBatch=          46 AvBLen=        13.0
 PrsmSu-ThDecC:  IPartSL=   29    0 NPrtUSL=   48    1 IThBeg=    0 IThEnd=   47 CPU=   -1 GPU=   -1 NThAct=   13.
 IPart= 40 NShTot=         546 NBatch=          42 AvBLen=        13.0
 PrsmSu-ThDecC:  IPartSL=   40    0 NPrtUSL=   48    1 IThBeg=    0 IThEnd=   47 CPU=   -1 GPU=   -1 NThAct=   12.
 IPart=  6 NShTot=         819 NBatch=          63 AvBLen=        13.0
 PrsmSu-ThDecC:  IPartSL=    6    0 NPrtUSL=   48    1 IThBeg=    0 IThEnd=   47 CPU=   -1 GPU=   -1 NThAct=   11.
 IPart= 15 NShTot=         715 NBatch=          55 AvBLen=        13.0
 PrsmSu-ThDecC:  IPartSL=   15    0 NPrtUSL=   48    1 IThBeg=    0 IThEnd=   47 CPU=   -1 GPU=   -1 NThAct=   10.
 IPart= 13 NShTot=         715 NBatch=          55 AvBLen=        13.0
 PrsmSu-ThDecC:  IPartSL=   13    0 NPrtUSL=   48    1 IThBeg=    0 IThEnd=   47 CPU=   -1 GPU=   -1 NThAct=    9.
 IPart=  2 NShTot=        1014 NBatch=          78 AvBLen=        13.0
 PrsmSu-ThDecC:  IPartSL=    2    0 NPrtUSL=   48    1 IThBeg=    0 IThEnd=   47 CPU=   -1 GPU=   -1 NThAct=    8.
 IPart=  9 NShTot=         754 NBatch=          58 AvBLen=        13.0
 PrsmSu-ThDecC:  IPartSL=    9    0 NPrtUSL=   48    1 IThBeg=    0 IThEnd=   47 CPU=   -1 GPU=   -1 NThAct=    7.
 IPart= 42 NShTot=         546 NBatch=          42 AvBLen=        13.0
 PrsmSu-ThDecC:  IPartSL=   42    0 NPrtUSL=   48    1 IThBeg=    0 IThEnd=   47 CPU=   -1 GPU=   -1 NThAct=    6.
 IPart= 34 NShTot=         585 NBatch=          45 AvBLen=        13.0
 PrsmSu-ThDecC:  IPartSL=   34    0 NPrtUSL=   48    1 IThBeg=    0 IThEnd=   47 CPU=   -1 GPU=   -1 NThAct=    5.
 IPart= 10 NShTot=         741 NBatch=          57 AvBLen=        13.0
 PrsmSu-ThDecC:  IPartSL=   10    0 NPrtUSL=   48    1 IThBeg=    0 IThEnd=   47 CPU=   -1 GPU=   -1 NThAct=    4.
 IPart= 36 NShTot=         585 NBatch=          45 AvBLen=        13.0
 PrsmSu-ThDecC:  IPartSL=   36    0 NPrtUSL=   48    1 IThBeg=    0 IThEnd=   47 CPU=   -1 GPU=   -1 NThAct=    3.
 IPart= 26 NShTot=         637 NBatch=          49 AvBLen=        13.0
 PrsmSu-ThDecC:  IPartSL=   26    0 NPrtUSL=   48    1 IThBeg=    0 IThEnd=   47 CPU=   -1 GPU=   -1 NThAct=    2.
 IPart= 19 NShTot=         650 NBatch=          50 AvBLen=        13.0
 PrsmSu-ThDecC:  IPartSL=   19    0 NPrtUSL=   48    1 IThBeg=    0 IThEnd=   47 CPU=   -1 GPU=   -1 NThAct=    1.
 PrSmSu:  NxtVal=            289.
 --------------------------------------------------------
       Center         ----      EFG at Nuclei      ----
                      3XX-RR        3YY-RR        3ZZ-RR
 --------------------------------------------------------
     1   Atom       -0.261954      0.104883      0.157070
     2   Atom        0.131532      0.059891     -0.191423
     3   Atom        0.142218     -0.229980      0.087762
     4   Atom       -0.077952      0.188520     -0.110568
     5   Atom        0.119980     -0.212280      0.092300
     6   Atom       -0.329018     -0.199305      0.528323
     7   Atom        0.097653     -0.038219     -0.059433
     8   Atom        0.022166     -0.194359      0.172193
     9   Atom        0.211693      0.315875     -0.527569
    10   Atom        0.179180     -0.026168     -0.153012
    11   Atom       -0.258704      0.089079      0.169625
    12   Atom       -0.003344      0.028953     -0.025609
    13   Atom        0.128357     -0.307423      0.179066
 --------------------------------------------------------
                        XY            XZ            YZ
 --------------------------------------------------------
     1   Atom       -0.136129      0.055264      0.027273
     2   Atom       -0.032162     -0.004212     -0.135058
     3   Atom       -0.054093      0.022762      0.182078
     4   Atom       -0.160203      0.072589     -0.152024
     5   Atom       -0.077179      0.035348      0.172880
     6   Atom       -0.037202      0.094620     -0.091968
     7   Atom       -0.192791     -0.028928      0.023186
     8   Atom        0.203332      0.026344     -0.043452
     9   Atom        0.649694      0.004072      0.035323
    10   Atom        0.010071     -0.029571      0.001986
    11   Atom        0.155634      0.043010     -0.018275
    12   Atom        0.230289      0.018978     -0.017553
    13   Atom       -0.085664     -0.002583     -0.035726
 --------------------------------------------------------


 ---------------------------------------------------------------------------------
              Nuclear Quadrupole Coupling Constant in Principal Axis System
 ---------------------------------------------------------------------------------

       Atom             a.u.   MegaHertz   Gauss  10(-4) cm-1        Axes

              Baa    -0.3447     1.656     0.591     0.552  0.9769  0.1960 -0.0852
     6 N(14)  Bbb    -0.2061     0.990     0.353     0.330 -0.1824  0.9724  0.1453
              Bcc     0.5508    -2.645    -0.944    -0.882  0.1114 -0.1264  0.9857
 
              Baa    -0.5312     2.551     0.910     0.851  0.0931 -0.1127  0.9893
     9 N(14)  Bbb    -0.3849     1.849     0.660     0.617  0.7292 -0.6688 -0.1448
              Bcc     0.9161    -4.400    -1.570    -1.468  0.6779  0.7349  0.0199
 

 ---------------------------------------------------------------------------------

 No NMR shielding tensors so no spin-rotation constants.
 Leave Link  601 at Thu Apr 21 16:31:54 2022, MaxMem= 25769803776 cpu:              10.6 elap:               0.3
 Calling FoFJK, ICntrl=      2127 FMM=F ISym2X=0 I1Cent= 0 IOpClX= 0 NMat=1 NMatS=1 NMatT=0.
 ***** Axes restored to original set *****
 -------------------------------------------------------------------
 Center     Atomic                   Forces (Hartrees/Bohr)
 Number     Number              X              Y              Z
 -------------------------------------------------------------------
      1        1           0.004386245    0.001463378   -0.000754035
      2        6           0.006227585    0.002042213   -0.003049458
      3        1           0.001160362   -0.000827499   -0.001193069
      4        6          -0.021824821   -0.001453106    0.004434925
      5        1           0.003671602   -0.002070315   -0.000524352
      6        7           0.014440993   -0.002044504    0.007254090
      7        6          -0.000380103    0.000972639    0.012454777
      8        1          -0.001081769    0.001226150   -0.002432774
      9        7          -0.010081326    0.001417495    0.007087630
     10        6          -0.000234691   -0.003572722   -0.013520344
     11        1          -0.002578855   -0.000336041    0.000626642
     12        6           0.005967398    0.002642543   -0.012709640
     13        1           0.000327379    0.000539769    0.002325606
 -------------------------------------------------------------------
 Cartesian Forces:  Max     0.021824821 RMS     0.006386155

 GradGradGradGradGradGradGradGradGradGradGradGradGradGradGradGradGradGrad
 Berny optimization.
 FormGI is forming the generalized inverse of G from B-inverse, IUseBI=4.
 Internal  Forces:  Max     0.012926459 RMS     0.003987717
 Search for a local minimum.
 Step number   1 out of a maximum of   66
 All quantities printed in internal units (Hartrees-Bohrs-Radians)
 Mixed Optimization -- RFO/linear search
 Second derivative matrix not updated -- first step.
 ITU=  0
     Eigenvalues ---    0.01765   0.01898   0.02077   0.02184   0.02260
     Eigenvalues ---    0.02342   0.02352   0.02424   0.02876   0.02876
     Eigenvalues ---    0.15998   0.16000   0.16000   0.16000   0.16000
     Eigenvalues ---    0.16000   0.22000   0.22670   0.23409   0.25000
     Eigenvalues ---    0.35135   0.35147   0.35523   0.35711   0.35850
     Eigenvalues ---    0.35944   0.43412   0.45758   0.46550   0.49644
     Eigenvalues ---    0.50948   0.57100   0.60566
 RFO step:  Lambda=-3.47788981D-03 EMin= 1.76499506D-02
 Linear search not attempted -- first point.
 Iteration  1 RMS(Cart)=  0.04293491 RMS(Int)=  0.00082148
 Iteration  2 RMS(Cart)=  0.00108888 RMS(Int)=  0.00033438
 Iteration  3 RMS(Cart)=  0.00000081 RMS(Int)=  0.00033438
 Variable       Old X    -DE/DX   Delta X   Delta X   Delta X     New X
                                 (Linear)    (Quad)   (Total)
    R1        2.05437  -0.00408   0.00000  -0.01149  -0.01149   2.04288
    R2        2.04835  -0.00038   0.00000  -0.00106  -0.00106   2.04729
    R3        2.53312  -0.01169   0.00000  -0.02035  -0.02035   2.51277
    R4        2.05456  -0.00172   0.00000  -0.00486  -0.00486   2.04970
    R5        2.63516   0.00631   0.00000   0.01345   0.01345   2.64861
    R6        2.60857  -0.00173   0.00000  -0.00407  -0.00411   2.60447
    R7        2.60719   0.00808   0.00000   0.01639   0.01629   2.62348
    R8        2.04316  -0.00176   0.00000  -0.00488  -0.00488   2.03829
    R9        2.48496  -0.00459   0.00000  -0.00756  -0.00750   2.47746
   R10        2.58032   0.01293   0.00000   0.02505   0.02513   2.60545
   R11        2.04535  -0.00245   0.00000  -0.00680  -0.00680   2.03855
   R12        2.59565  -0.00602   0.00000  -0.01130  -0.01129   2.58436
   R13        2.04169  -0.00232   0.00000  -0.00639  -0.00639   2.03531
    A1        2.03650   0.00224   0.00000   0.01368   0.01367   2.05017
    A2        2.09721  -0.00156   0.00000  -0.00953  -0.00954   2.08767
    A3        2.14946  -0.00068   0.00000  -0.00420  -0.00421   2.14525
    A4        2.07309   0.00683   0.00000   0.03627   0.03625   2.10934
    A5        2.21468  -0.00668   0.00000  -0.02989  -0.02992   2.18476
    A6        1.99539  -0.00016   0.00000  -0.00646  -0.00649   1.98890
    A7        2.25492  -0.00629   0.00000  -0.02512  -0.02494   2.22998
    A8        2.19471  -0.00182   0.00000  -0.00749  -0.00729   2.18741
    A9        1.83355   0.00811   0.00000   0.03252   0.03191   1.86546
   A10        2.13324   0.00180   0.00000   0.00514   0.00532   2.13856
   A11        1.97016  -0.00728   0.00000  -0.03278  -0.03313   1.93702
   A12        2.17979   0.00548   0.00000   0.02764   0.02782   2.20760
   A13        1.83167   0.00577   0.00000   0.02462   0.02424   1.85591
   A14        2.11846   0.00210   0.00000   0.00924   0.00933   2.12780
   A15        1.93232  -0.00231   0.00000  -0.00692  -0.00725   1.92507
   A16        2.23240   0.00021   0.00000  -0.00230  -0.00223   2.23017
   A17        1.85685  -0.00426   0.00000  -0.01595  -0.01676   1.84009
   A18        2.12747   0.00149   0.00000   0.00429   0.00420   2.13166
   A19        2.29880   0.00278   0.00000   0.01219   0.01202   2.31082
    D1        0.00059  -0.00104   0.00000  -0.03125  -0.03117  -0.03058
    D2        3.13451  -0.00143   0.00000  -0.04530  -0.04538   3.08913
    D3       -3.13373  -0.00077   0.00000  -0.02280  -0.02272   3.12674
    D4        0.00019  -0.00116   0.00000  -0.03684  -0.03692  -0.03674
    D5       -0.52359   0.00085   0.00000   0.03993   0.03985  -0.48374
    D6        2.62317   0.00146   0.00000   0.06612   0.06604   2.68921
    D7        2.61062   0.00050   0.00000   0.02659   0.02668   2.63729
    D8       -0.52581   0.00111   0.00000   0.05278   0.05287  -0.47294
    D9        0.02107  -0.00080   0.00000  -0.03203  -0.03192  -0.01085
   D10       -3.11924  -0.00080   0.00000  -0.03211  -0.03174   3.13220
   D11       -3.12486  -0.00132   0.00000  -0.05410  -0.05431   3.10401
   D12        0.01801  -0.00133   0.00000  -0.05419  -0.05413  -0.03613
   D13        3.11764   0.00103   0.00000   0.04424   0.04431  -3.12123
   D14       -0.01303  -0.00008   0.00000  -0.00022   0.00021  -0.01282
   D15       -0.01981   0.00155   0.00000   0.06538   0.06607   0.04627
   D16        3.13271   0.00043   0.00000   0.02092   0.02197  -3.12851
   D17       -0.00819   0.00047   0.00000   0.01873   0.01834   0.01016
   D18        3.13473   0.00046   0.00000   0.01866   0.01855  -3.12991
   D19        3.13775   0.00014   0.00000   0.00635   0.00700  -3.13844
   D20       -0.00517   0.00062   0.00000   0.02545   0.02564   0.02047
   D21        0.01613  -0.00152   0.00000  -0.05888  -0.05793  -0.04180
   D22       -3.13789  -0.00027   0.00000  -0.00842  -0.00745   3.13785
   D23       -3.12689  -0.00100   0.00000  -0.03820  -0.03790   3.11839
   D24        0.00228   0.00026   0.00000   0.01227   0.01258   0.01485
         Item               Value     Threshold  Converged?
 Maximum Force            0.012926     0.000450     NO 
 RMS     Force            0.003988     0.000300     NO 
 Maximum Displacement     0.126668     0.001800     NO 
 RMS     Displacement     0.042860     0.001200     NO 
 Predicted change in Energy=-1.816962D-03
 GradGradGradGradGradGradGradGradGradGradGradGradGradGradGradGradGradGrad

                          Input orientation:                          
 ---------------------------------------------------------------------
 Center     Atomic      Atomic             Coordinates (Angstroms)
 Number     Number       Type             X           Y           Z
 ---------------------------------------------------------------------
      1          1           0        1.002020   -0.758127    0.015762
      2          6           0        2.069952   -0.900334    0.104979
      3          1           0        2.445930   -1.285473    1.045200
      4          6           0        2.862165   -0.586637   -0.915854
      5          1           0        2.448560   -0.216212   -1.847619
      6          7           0        4.261419   -0.666859   -0.906407
      7          6           0        5.106060   -0.554827    0.176890
      8          1           0        4.745449   -0.374825    1.177374
      9          7           0        6.357759   -0.693730   -0.187407
     10          6           0        6.344948   -0.890510   -1.551976
     11          1           0        7.252989   -1.037549   -2.115496
     12          6           0        5.062954   -0.844354   -2.025948
     13          1           0        4.650297   -0.947863   -3.015398
 ---------------------------------------------------------------------
                    Distance matrix (angstroms):
                    1          2          3          4          5
     1  H    0.000000
     2  C    1.081046   0.000000
     3  H    1.850057   1.083377   0.000000
     4  C    2.087452   1.329702   2.123053   0.000000
     5  H    2.420401   2.103333   3.084109   1.084653   0.000000
     6  N    3.388571   2.424859   2.736321   1.401584   2.091751
     7  C    4.112230   3.056550   2.892075   2.496029   3.357917
     8  H    3.938213   2.929928   2.476800   2.823690   3.801505
     9  N    5.359978   4.302728   4.143898   3.572293   4.273894
    10  C    5.569759   4.584887   4.701453   3.553417   3.965341
    11  H    6.610216   5.640320   5.758409   4.574035   4.881485
    12  C    4.546119   3.674513   4.058983   2.478346   2.694702
    13  H    4.746984   4.049345   4.632674   2.781364   2.597435
                    6          7          8          9         10
     6  N    0.000000
     7  C    1.378224   0.000000
     8  H    2.159100   1.078615   0.000000
     9  N    2.216376   1.311014   2.136322   0.000000
    10  C    2.192686   2.153254   3.205258   1.378744   0.000000
    11  H    3.247891   3.177634   4.191652   2.153410   1.078755
    12  C    1.388284   2.222201   3.253081   2.253761   1.367585
    13  H    2.162875   3.248522   4.232819   3.313237   2.239807
                   11         12         13
    11  H    0.000000
    12  C    2.200363   0.000000
    13  H    2.755335   1.077038   0.000000
 Stoichiometry    C5H6N2
 Framework group  C1[X(C5H6N2)]
 Deg. of freedom    33
 Full point group                 C1      NOp   1
 Largest Abelian subgroup         C1      NOp   1
 Largest concise Abelian subgroup C1      NOp   1
                         Standard orientation:                         
 ---------------------------------------------------------------------
 Center     Atomic      Atomic             Coordinates (Angstroms)
 Number     Number       Type             X           Y           Z
 ---------------------------------------------------------------------
      1          1           0        3.592039    0.025190    0.049443
      2          6           0        2.568927   -0.291170    0.197154
      3          1           0        2.406341   -1.273890    0.623221
      4          6           0        1.573745    0.515563   -0.159079
      5          1           0        1.774779    1.498967   -0.570144
      6          7           0        0.210378    0.201244   -0.076194
      7          6           0       -0.373873   -1.045391   -0.139863
      8          1           0        0.199752   -1.948469   -0.277028
      9          7           0       -1.676139   -0.960481   -0.014761
     10          6           0       -1.965895    0.380434    0.122798
     11          1           0       -2.976926    0.735600    0.246840
     12          6           0       -0.819533    1.123009    0.054052
     13          1           0       -0.635887    2.182581    0.113984
 ---------------------------------------------------------------------
 Rotational constants (GHZ):           8.0458812           2.1194165           1.7020532
 Standard basis: 6-311++G(d,p) (5D, 7F)
 There are   203 symmetry adapted cartesian basis functions of A   symmetry.
 There are   196 symmetry adapted basis functions of A   symmetry.
   196 basis functions,   306 primitive gaussians,   203 cartesian basis functions
    25 alpha electrons       25 beta electrons
       nuclear repulsion energy       275.2422500792 Hartrees.
 NAtoms=   13 NActive=   13 NUniq=   13 SFac= 1.00D+00 NAtFMM=   60 NAOKFM=F Big=F
 Integral buffers will be    131072 words long.
 Raffenetti 2 integral format.
 Two-electron integral symmetry is turned on.
 Nuclear repulsion after empirical dispersion term =      275.2226947139 Hartrees.
 One-electron integrals computed using PRISM.
 NBasis=   196 RedAO= T EigKep=  1.75D-05  NBF=   196
 NBsUse=   196 1.00D-06 EigRej= -1.00D+00 NBFU=   196
 Initial guess from the checkpoint file:  "1VI-3.chk"
 B after Tr=     0.000000    0.000000    0.000000
         Rot=    0.999986   -0.001833    0.000927   -0.004878 Ang=  -0.61 deg.
 ExpMin= 3.60D-02 ExpMax= 6.29D+03 ExpMxC= 9.49D+02 IAcc=3 IRadAn=         5 AccDes= 0.00D+00
 Harris functional with IExCor=  402 and IRadAn=       5 diagonalized for initial guess.
 HarFok:  IExCor=  402 AccDes= 0.00D+00 IRadAn=         5 IDoV= 1 UseB2=F ITyADJ=14
 ICtDFT=  3500011 ScaDFX=  1.000000  1.000000  1.000000  1.000000
 FoFCou: FMM=F IPFlag=           0 FMFlag=      100000 FMFlg1=           0
         NFxFlg=           0 DoJE=T BraDBF=F KetDBF=T FulRan=T
         wScrn=  0.000000 ICntrl=       500 IOpCl=  0 I1Cent=   200000004 NGrid=           0
         NMat0=    1 NMatS0=      1 NMatT0=    0 NMatD0=    1 NMtDS0=    0 NMtDT0=    0
 Petite list used in FoFCou.
 Requested convergence on RMS density matrix=1.00D-08 within 128 cycles.
 Requested convergence on MAX density matrix=1.00D-06.
 Requested convergence on             energy=1.00D-06.
 No special actions if energy rises.
 SCF Done:  E(RB3LYP) =  -303.712652841     A.U. after   11 cycles
            NFock= 11  Conv=0.71D-08     -V/T= 2.0043
 Calling FoFJK, ICntrl=      2127 FMM=F ISym2X=0 I1Cent= 0 IOpClX= 0 NMat=1 NMatS=1 NMatT=0.
 ***** Axes restored to original set *****
 -------------------------------------------------------------------
 Center     Atomic                   Forces (Hartrees/Bohr)
 Number     Number              X              Y              Z
 -------------------------------------------------------------------
      1        1          -0.000207245   -0.000102837   -0.000065164
      2        6          -0.000382228    0.000368491    0.002116916
      3        1           0.000278017   -0.000217328   -0.000715889
      4        6          -0.005045288    0.001281829   -0.000727836
      5        1           0.001046139   -0.001078639   -0.000490952
      6        7          -0.001346874    0.004775488   -0.000650860
      7        6           0.003195491   -0.005421685   -0.006353922
      8        1          -0.000130257    0.000407288   -0.000847326
      9        7           0.002876877    0.000137400    0.003711795
     10        6          -0.000875096    0.002637061   -0.000502024
     11        1           0.000216259    0.000448959    0.000908834
     12        6           0.001278078   -0.002860903    0.002924674
     13        1          -0.000903872   -0.000375124    0.000691754
 -------------------------------------------------------------------
 Cartesian Forces:  Max     0.006353922 RMS     0.002221306

 GradGradGradGradGradGradGradGradGradGradGradGradGradGradGradGradGradGrad
 Berny optimization.
 Using GEDIIS/GDIIS optimizer.
 FormGI is forming the generalized inverse of G from B-inverse, IUseBI=4.
 Internal  Forces:  Max     0.005117085 RMS     0.001520042
 Search for a local minimum.
 Step number   2 out of a maximum of   66
 All quantities printed in internal units (Hartrees-Bohrs-Radians)
 Mixed Optimization -- RFO/linear search
 Update second derivatives using D2CorX and points    1    2
 DE= -1.32D-03 DEPred=-1.82D-03 R= 7.25D-01
 TightC=F SS=  1.41D+00  RLast= 2.12D-01 DXNew= 5.0454D-01 6.3465D-01
 Trust test= 7.25D-01 RLast= 2.12D-01 DXMaxT set to 5.05D-01
 ITU=  1  0
 Use linear search instead of GDIIS.
     Eigenvalues ---    0.01660   0.01897   0.02166   0.02244   0.02326
     Eigenvalues ---    0.02354   0.02406   0.02613   0.02859   0.02963
     Eigenvalues ---    0.15018   0.15989   0.15999   0.16000   0.16000
     Eigenvalues ---    0.16096   0.21220   0.22667   0.24898   0.29766
     Eigenvalues ---    0.34934   0.35170   0.35525   0.35613   0.35812
     Eigenvalues ---    0.35926   0.43055   0.44904   0.45796   0.49825
     Eigenvalues ---    0.51870   0.57352   0.60383
 RFO step:  Lambda=-6.20094635D-04 EMin= 1.66024514D-02
 Quartic linear search produced a step of -0.19555.
 Iteration  1 RMS(Cart)=  0.02469315 RMS(Int)=  0.00030345
 Iteration  2 RMS(Cart)=  0.00036462 RMS(Int)=  0.00011534
 Iteration  3 RMS(Cart)=  0.00000005 RMS(Int)=  0.00011534
 Variable       Old X    -DE/DX   Delta X   Delta X   Delta X     New X
                                 (Linear)    (Quad)   (Total)
    R1        2.04288   0.00020   0.00225  -0.00392  -0.00168   2.04121
    R2        2.04729  -0.00045   0.00021  -0.00141  -0.00121   2.04608
    R3        2.51277   0.00120   0.00398  -0.00604  -0.00206   2.51071
    R4        2.04970  -0.00035   0.00095  -0.00264  -0.00169   2.04801
    R5        2.64861   0.00432  -0.00263   0.01256   0.00993   2.65854
    R6        2.60447  -0.00029   0.00080  -0.00228  -0.00145   2.60301
    R7        2.62348  -0.00155  -0.00319   0.00370   0.00045   2.62392
    R8        2.03829  -0.00067   0.00095  -0.00336  -0.00241   2.03588
    R9        2.47746  -0.00064   0.00147  -0.00383  -0.00227   2.47519
   R10        2.60545  -0.00070  -0.00491   0.00859   0.00370   2.60915
   R11        2.03855  -0.00035   0.00133  -0.00338  -0.00205   2.03650
   R12        2.58436   0.00130   0.00221  -0.00195   0.00019   2.58455
   R13        2.03531  -0.00025   0.00125  -0.00299  -0.00175   2.03356
    A1        2.05017   0.00034  -0.00267   0.00699   0.00430   2.05446
    A2        2.08767   0.00035   0.00187  -0.00187  -0.00003   2.08764
    A3        2.14525  -0.00068   0.00082  -0.00498  -0.00418   2.14107
    A4        2.10934   0.00146  -0.00709   0.02069   0.01360   2.12294
    A5        2.18476  -0.00074   0.00585  -0.01407  -0.00823   2.17654
    A6        1.98890  -0.00071   0.00127  -0.00652  -0.00525   1.98365
    A7        2.22998   0.00174   0.00488  -0.00338   0.00147   2.23146
    A8        2.18741   0.00202   0.00143   0.00423   0.00563   2.19305
    A9        1.86546  -0.00374  -0.00624  -0.00024  -0.00678   1.85868
   A10        2.13856  -0.00298  -0.00104  -0.00885  -0.01015   2.12841
   A11        1.93702   0.00512   0.00648   0.00483   0.01100   1.94802
   A12        2.20760  -0.00214  -0.00544   0.00397  -0.00174   2.20586
   A13        1.85591  -0.00371  -0.00474  -0.00325  -0.00803   1.84788
   A14        2.12780  -0.00134  -0.00183  -0.00270  -0.00451   2.12329
   A15        1.92507   0.00083   0.00142   0.00087   0.00204   1.92710
   A16        2.23017   0.00052   0.00044   0.00216   0.00261   2.23278
   A17        1.84009   0.00161   0.00328   0.00003   0.00295   1.84304
   A18        2.13166  -0.00186  -0.00082  -0.00652  -0.00729   2.12437
   A19        2.31082   0.00029  -0.00235   0.00723   0.00494   2.31576
    D1       -0.03058  -0.00005   0.00610  -0.01477  -0.00871  -0.03929
    D2        3.08913   0.00029   0.00887  -0.00894  -0.00003   3.08910
    D3        3.12674  -0.00053   0.00444  -0.02479  -0.02038   3.10636
    D4       -0.03674  -0.00020   0.00722  -0.01896  -0.01170  -0.04844
    D5       -0.48374   0.00088  -0.00779   0.05516   0.04745  -0.43630
    D6        2.68921  -0.00009  -0.01291   0.02631   0.01340   2.70261
    D7        2.63729   0.00122  -0.00522   0.06095   0.05573   2.69303
    D8       -0.47294   0.00024  -0.01034   0.03210   0.02168  -0.45126
    D9       -0.01085  -0.00053   0.00624  -0.03053  -0.02419  -0.03504
   D10        3.13220   0.00060   0.00621   0.01077   0.01701  -3.13397
   D11        3.10401   0.00038   0.01062  -0.00586   0.00483   3.10883
   D12       -0.03613   0.00151   0.01059   0.03545   0.04603   0.00990
   D13       -3.12123  -0.00106  -0.00867  -0.01844  -0.02696   3.13499
   D14       -0.01282   0.00002  -0.00004   0.00174   0.00159  -0.01124
   D15        0.04627  -0.00193  -0.01292  -0.04221  -0.05508  -0.00882
   D16       -3.12851  -0.00085  -0.00430  -0.02203  -0.02653   3.12814
   D17        0.01016  -0.00048  -0.00359  -0.01316  -0.01675  -0.00660
   D18       -3.12991   0.00071  -0.00363   0.03016   0.02668  -3.10322
   D19       -3.13844  -0.00005  -0.00137   0.00420   0.00266  -3.13578
   D20        0.02047  -0.00074  -0.00501  -0.01469  -0.01975   0.00072
   D21       -0.04180   0.00155   0.01133   0.03574   0.04699   0.00519
   D22        3.13785   0.00037   0.00146   0.01300   0.01430  -3.13104
   D23        3.11839   0.00083   0.00741   0.01551   0.02289   3.14128
   D24        0.01485  -0.00034  -0.00246  -0.00722  -0.00980   0.00505
         Item               Value     Threshold  Converged?
 Maximum Force            0.005117     0.000450     NO 
 RMS     Force            0.001520     0.000300     NO 
 Maximum Displacement     0.087528     0.001800     NO 
 RMS     Displacement     0.024673     0.001200     NO 
 Predicted change in Energy=-3.993144D-04
 GradGradGradGradGradGradGradGradGradGradGradGradGradGradGradGradGradGrad

                          Input orientation:                          
 ---------------------------------------------------------------------
 Center     Atomic      Atomic             Coordinates (Angstroms)
 Number     Number       Type             X           Y           Z
 ---------------------------------------------------------------------
      1          1           0        1.003482   -0.738241    0.029011
      2          6           0        2.071258   -0.878831    0.111678
      3          1           0        2.458439   -1.254696    1.050369
      4          6           0        2.853901   -0.586151   -0.921285
      5          1           0        2.445569   -0.241374   -1.864115
      6          7           0        4.258178   -0.670421   -0.911458
      7          6           0        5.102212   -0.589907    0.174133
      8          1           0        4.733584   -0.414044    1.171051
      9          7           0        6.357903   -0.700201   -0.181799
     10          6           0        6.348653   -0.868497   -1.552173
     11          1           0        7.260620   -0.991231   -2.113087
     12          6           0        5.065517   -0.857953   -2.025470
     13          1           0        4.651183   -0.965753   -3.012754
 ---------------------------------------------------------------------
                    Distance matrix (angstroms):
                    1          2          3          4          5
     1  H    0.000000
     2  C    1.080160   0.000000
     3  H    1.851161   1.082738   0.000000
     4  C    2.085724   1.328610   2.119142   0.000000
     5  H    2.431135   2.109554   3.085645   1.083760   0.000000
     6  N    3.388528   2.423398   2.725656   1.406837   2.092173
     7  C    4.103980   3.045334   2.863437   2.500972   3.366554
     8  H    3.914463   2.902805   2.428486   2.817925   3.804874
     9  N    5.358704   4.300391   4.126926   3.582998   4.283348
    10  C    5.575658   4.589621   4.696397   3.562447   3.965433
    11  H    6.618486   5.647273   5.756545   4.582974   4.879445
    12  C    4.553608   3.678780   4.051548   2.486834   2.696355
    13  H    4.754977   4.052856   4.626076   2.783623   2.590140
                    6          7          8          9         10
     6  N    0.000000
     7  C    1.377456   0.000000
     8  H    2.151414   1.077339   0.000000
     9  N    2.223092   1.309813   2.133190   0.000000
    10  C    2.195413   2.147408   3.198582   1.380701   0.000000
    11  H    3.249845   3.170357   4.183852   2.151621   1.077669
    12  C    1.388520   2.216179   3.244223   2.257050   1.367684
    13  H    2.158036   3.240515   4.220828   3.316281   2.241464
                   11         12         13
    11  H    0.000000
    12  C    2.200890   0.000000
    13  H    2.760292   1.076114   0.000000
 Stoichiometry    C5H6N2
 Framework group  C1[X(C5H6N2)]
 Deg. of freedom    33
 Full point group                 C1      NOp   1
 Largest Abelian subgroup         C1      NOp   1
 Largest concise Abelian subgroup C1      NOp   1
                         Standard orientation:                         
 ---------------------------------------------------------------------
 Center     Atomic      Atomic             Coordinates (Angstroms)
 Number     Number       Type             X           Y           Z
 ---------------------------------------------------------------------
      1          1           0        3.592837    0.011712    0.036162
      2          6           0        2.568238   -0.299505    0.177884
      3          1           0        2.393889   -1.286209    0.588178
      4          6           0        1.580007    0.523816   -0.154900
      5          1           0        1.773760    1.520356   -0.534247
      6          7           0        0.211711    0.207247   -0.072797
      7          6           0       -0.371231   -1.040103   -0.113827
      8          1           0        0.209958   -1.936745   -0.251339
      9          7           0       -1.675546   -0.966434   -0.019242
     10          6           0       -1.970483    0.377354    0.097301
     11          1           0       -2.984895    0.727151    0.197198
     12          6           0       -0.823306    1.121575    0.071190
     13          1           0       -0.638049    2.179226    0.142432
 ---------------------------------------------------------------------
 Rotational constants (GHZ):           8.0664715           2.1185145           1.6985057
 Standard basis: 6-311++G(d,p) (5D, 7F)
 There are   203 symmetry adapted cartesian basis functions of A   symmetry.
 There are   196 symmetry adapted basis functions of A   symmetry.
   196 basis functions,   306 primitive gaussians,   203 cartesian basis functions
    25 alpha electrons       25 beta electrons
       nuclear repulsion energy       275.1906199183 Hartrees.
 NAtoms=   13 NActive=   13 NUniq=   13 SFac= 1.00D+00 NAtFMM=   60 NAOKFM=F Big=F
 Integral buffers will be    131072 words long.
 Raffenetti 2 integral format.
 Two-electron integral symmetry is turned on.
 Nuclear repulsion after empirical dispersion term =      275.1710784572 Hartrees.
 One-electron integrals computed using PRISM.
 NBasis=   196 RedAO= T EigKep=  1.71D-05  NBF=   196
 NBsUse=   196 1.00D-06 EigRej= -1.00D+00 NBFU=   196
 Initial guess from the checkpoint file:  "1VI-3.chk"
 B after Tr=    -0.000000   -0.000000    0.000000
         Rot=    0.999999   -0.001344    0.000189   -0.000291 Ang=  -0.16 deg.
 ExpMin= 3.60D-02 ExpMax= 6.29D+03 ExpMxC= 9.49D+02 IAcc=3 IRadAn=         5 AccDes= 0.00D+00
 Harris functional with IExCor=  402 and IRadAn=       5 diagonalized for initial guess.
 HarFok:  IExCor=  402 AccDes= 0.00D+00 IRadAn=         5 IDoV= 1 UseB2=F ITyADJ=14
 ICtDFT=  3500011 ScaDFX=  1.000000  1.000000  1.000000  1.000000
 FoFCou: FMM=F IPFlag=           0 FMFlag=      100000 FMFlg1=           0
         NFxFlg=           0 DoJE=T BraDBF=F KetDBF=T FulRan=T
         wScrn=  0.000000 ICntrl=       500 IOpCl=  0 I1Cent=   200000004 NGrid=           0
         NMat0=    1 NMatS0=      1 NMatT0=    0 NMatD0=    1 NMtDS0=    0 NMtDT0=    0
 Petite list used in FoFCou.
 Requested convergence on RMS density matrix=1.00D-08 within 128 cycles.
 Requested convergence on MAX density matrix=1.00D-06.
 Requested convergence on             energy=1.00D-06.
 No special actions if energy rises.
 SCF Done:  E(RB3LYP) =  -303.712985526     A.U. after   10 cycles
            NFock= 10  Conv=0.91D-08     -V/T= 2.0043
 Calling FoFJK, ICntrl=      2127 FMM=F ISym2X=0 I1Cent= 0 IOpClX= 0 NMat=1 NMatS=1 NMatT=0.
 ***** Axes restored to original set *****
 -------------------------------------------------------------------
 Center     Atomic                   Forces (Hartrees/Bohr)
 Number     Number              X              Y              Z
 -------------------------------------------------------------------
      1        1          -0.000824390   -0.000149863    0.000142697
      2        6          -0.001192411   -0.000011670    0.001475897
      3        1          -0.000043129    0.000175387   -0.000155381
      4        6           0.000638779   -0.000364741   -0.000644922
      5        1           0.000379756   -0.000301545   -0.000239479
      6        7          -0.001170195   -0.001238400   -0.000492465
      7        6           0.000811986    0.000478669   -0.003145420
      8        1           0.000125481    0.000138764    0.000461261
      9        7           0.001146031    0.000031284    0.000582528
     10        6          -0.000880261   -0.001505272    0.000319679
     11        1           0.000576334   -0.000115765    0.000180024
     12        6           0.000805424    0.002737204    0.001874544
     13        1          -0.000373405    0.000125949   -0.000358964
 -------------------------------------------------------------------
 Cartesian Forces:  Max     0.003145420 RMS     0.000972941

 GradGradGradGradGradGradGradGradGradGradGradGradGradGradGradGradGradGrad
 Berny optimization.
 Using GEDIIS/GDIIS optimizer.
 FormGI is forming the generalized inverse of G from B-inverse, IUseBI=4.
 Internal  Forces:  Max     0.002348364 RMS     0.000704966
 Search for a local minimum.
 Step number   3 out of a maximum of   66
 All quantities printed in internal units (Hartrees-Bohrs-Radians)
 Mixed Optimization -- En-DIIS/RFO-DIIS
 Update second derivatives using D2CorX and points    1    2    3
 DE= -3.33D-04 DEPred=-3.99D-04 R= 8.33D-01
 TightC=F SS=  1.41D+00  RLast= 1.40D-01 DXNew= 8.4853D-01 4.1884D-01
 Trust test= 8.33D-01 RLast= 1.40D-01 DXMaxT set to 5.05D-01
 ITU=  1  1  0
 Use linear search instead of GDIIS.
     Eigenvalues ---    0.01271   0.01892   0.02174   0.02240   0.02335
     Eigenvalues ---    0.02362   0.02404   0.02843   0.02899   0.04505
     Eigenvalues ---    0.14248   0.15994   0.16000   0.16000   0.16054
     Eigenvalues ---    0.16126   0.22158   0.22877   0.24991   0.27521
     Eigenvalues ---    0.35059   0.35310   0.35478   0.35747   0.35883
     Eigenvalues ---    0.36065   0.42644   0.44149   0.45787   0.49820
     Eigenvalues ---    0.51942   0.58970   0.60412
 RFO step:  Lambda=-2.05322043D-04 EMin= 1.27137176D-02
 Quartic linear search produced a step of -0.13244.
 Iteration  1 RMS(Cart)=  0.01573113 RMS(Int)=  0.00013390
 Iteration  2 RMS(Cart)=  0.00020256 RMS(Int)=  0.00002169
 Iteration  3 RMS(Cart)=  0.00000002 RMS(Int)=  0.00002169
 Variable       Old X    -DE/DX   Delta X   Delta X   Delta X     New X
                                 (Linear)    (Quad)   (Total)
    R1        2.04121   0.00078   0.00022   0.00079   0.00101   2.04222
    R2        2.04608  -0.00021   0.00016  -0.00107  -0.00091   2.04517
    R3        2.51071   0.00235   0.00027   0.00194   0.00222   2.51293
    R4        2.04801  -0.00003   0.00022  -0.00097  -0.00075   2.04726
    R5        2.65854   0.00100  -0.00131   0.00666   0.00534   2.66388
    R6        2.60301  -0.00008   0.00019  -0.00093  -0.00075   2.60227
    R7        2.62392  -0.00071  -0.00006  -0.00060  -0.00066   2.62326
    R8        2.03588   0.00041   0.00032  -0.00029   0.00003   2.03591
    R9        2.47519   0.00013   0.00030  -0.00105  -0.00076   2.47443
   R10        2.60915  -0.00080  -0.00049   0.00110   0.00062   2.60976
   R11        2.03650   0.00041   0.00027  -0.00017   0.00010   2.03660
   R12        2.58455   0.00019  -0.00002   0.00013   0.00011   2.58466
   R13        2.03356   0.00046   0.00023   0.00010   0.00033   2.03389
    A1        2.05446  -0.00017  -0.00057   0.00141   0.00084   2.05531
    A2        2.08764   0.00040   0.00000   0.00178   0.00179   2.08943
    A3        2.14107  -0.00022   0.00055  -0.00318  -0.00262   2.13845
    A4        2.12294  -0.00023  -0.00180   0.00688   0.00508   2.12801
    A5        2.17654   0.00132   0.00109   0.00044   0.00153   2.17807
    A6        1.98365  -0.00109   0.00070  -0.00727  -0.00657   1.97707
    A7        2.23146   0.00125  -0.00020   0.00431   0.00415   2.23560
    A8        2.19305   0.00029  -0.00075   0.00349   0.00277   2.19582
    A9        1.85868  -0.00154   0.00090  -0.00780  -0.00691   1.85176
   A10        2.12841  -0.00050   0.00134  -0.00574  -0.00435   2.12406
   A11        1.94802   0.00157  -0.00146   0.00985   0.00840   1.95642
   A12        2.20586  -0.00105   0.00023  -0.00414  -0.00387   2.20200
   A13        1.84788  -0.00104   0.00106  -0.00676  -0.00571   1.84217
   A14        2.12329  -0.00049   0.00060  -0.00420  -0.00361   2.11968
   A15        1.92710   0.00006  -0.00027   0.00076   0.00048   1.92758
   A16        2.23278   0.00043  -0.00035   0.00348   0.00313   2.23592
   A17        1.84304   0.00096  -0.00039   0.00411   0.00368   1.84672
   A18        2.12437  -0.00071   0.00097  -0.00615  -0.00520   2.11917
   A19        2.31576  -0.00026  -0.00065   0.00198   0.00130   2.31706
    D1       -0.03929   0.00012   0.00115  -0.00142  -0.00027  -0.03957
    D2        3.08910   0.00018   0.00000   0.00415   0.00416   3.09325
    D3        3.10636   0.00006   0.00270  -0.00826  -0.00556   3.10080
    D4       -0.04844   0.00012   0.00155  -0.00269  -0.00113  -0.04957
    D5       -0.43630   0.00020  -0.00628   0.03353   0.02725  -0.40905
    D6        2.70261   0.00053  -0.00177   0.03194   0.03017   2.73277
    D7        2.69303   0.00026  -0.00738   0.03880   0.03141   2.72444
    D8       -0.45126   0.00059  -0.00287   0.03721   0.03433  -0.41692
    D9       -0.03504  -0.00005   0.00320  -0.01464  -0.01145  -0.04649
   D10       -3.13397  -0.00052  -0.00225  -0.01359  -0.01586   3.13335
   D11        3.10883  -0.00033  -0.00064  -0.01330  -0.01392   3.09491
   D12        0.00990  -0.00080  -0.00610  -0.01225  -0.01834  -0.00844
   D13        3.13499   0.00072   0.00357   0.01685   0.02037  -3.12783
[...]
 9052 Fit       0.020837
 9053 Fit       0.016901
 9054 Fit       0.013515
 9055 Fit       0.010858
 9056 Fit       0.008861
 9057 Fit       0.007381
 9058 Fit       0.009036
 9059 Fit       0.010772
 9060 Fit       0.012920
 9061 Fit       0.015439
 9062 Fit       0.018113
 9063 Fit       0.020482
 9064 Fit       0.021911
 9065 Fit       0.021909
 9066 Fit       0.020476
 9067 Fit       0.018105
 9068 Fit       0.015429
 9069 Fit       0.012909
 9070 Fit       0.010761
 9071 Fit       0.009026
 9072 Fit       0.009125
 9073 Fit       0.010626
 9074 Fit       0.012372
 9075 Fit       0.014283
 9076 Fit       0.016174
 9077 Fit       0.017744
 9078 Fit       0.018649
 9079 Fit       0.018648
 9080 Fit       0.017739
 9081 Fit       0.016166
 9082 Fit       0.014273
 9083 Fit       0.012361
 9084 Fit       0.010615
 9085 Fit       0.009114
 9086 Fit       0.010437
 9087 Fit       0.011874
 9088 Fit       0.013366
 9089 Fit       0.014766
 9090 Fit       0.015877
 9091 Fit       0.016498
 9092 Fit       0.016496
 9093 Fit       0.015873
 9094 Fit       0.014759
 9095 Fit       0.013357
 9096 Fit       0.011865
 9097 Fit       0.010427
 9098 Fit       0.012597
 9099 Fit       0.013676
 9100 Fit       0.014506
 9101 Fit       0.014959
 9102 Fit       0.014957
 9103 Fit       0.014501
 9104 Fit       0.013670
 9105 Fit       0.012589
 9106 Fit       0.013755
 9107 Fit       0.013754
 9108 Fit       0.009061
 9109 Fit       0.009566
 9110 Fit       0.009840
 9111 Fit       0.009841
 9112 Fit       0.009569
 9113 Fit       0.009066
 9114 Fit       0.008895
 9115 Fit       0.009691
 9116 Fit       0.010303
 9117 Fit       0.010638
 9118 Fit       0.010639
 9119 Fit       0.010306
 9120 Fit       0.009696
 9121 Fit       0.008901
 9122 Fit       0.008399
 9123 Fit       0.009443
 9124 Fit       0.010413
 9125 Fit       0.011175
 9126 Fit       0.011599
 9127 Fit       0.011600
 9128 Fit       0.011178
 9129 Fit       0.010418
 9130 Fit       0.009449
 9131 Fit       0.008406
 9132 Fit       0.007656
 9133 Fit       0.008847
 9134 Fit       0.010119
 9135 Fit       0.011346
 9136 Fit       0.012343
 9137 Fit       0.012910
 9138 Fit       0.012911
 9139 Fit       0.012347
 9140 Fit       0.011351
 9141 Fit       0.010125
 9142 Fit       0.008854
 9143 Fit       0.007662
 9144 Fit       0.006790
 9145 Fit       0.007992
 9146 Fit       0.009424
 9147 Fit       0.011032
 9148 Fit       0.012666
 9149 Fit       0.014057
 9150 Fit       0.014874
 9151 Fit       0.014875
 9152 Fit       0.014061
 9153 Fit       0.012671
 9154 Fit       0.011038
 9155 Fit       0.009429
 9156 Fit       0.007997
 9157 Fit       0.006794
 9158 Fit       0.007026
 9159 Fit       0.008425
 9160 Fit       0.010183
 9161 Fit       0.012282
 9162 Fit       0.014557
 9163 Fit       0.016615
 9164 Fit       0.017878
 9165 Fit       0.017879
 9166 Fit       0.016617
 9167 Fit       0.014561
 9168 Fit       0.012286
 9169 Fit       0.010187
 9170 Fit       0.008429
 9171 Fit       0.007029
 9172 Fit       0.006113
 9173 Fit       0.007328
 9174 Fit       0.008960
 9175 Fit       0.011124
 9176 Fit       0.013874
 9177 Fit       0.017069
 9178 Fit       0.020160
 9179 Fit       0.022153
 9180 Fit       0.022154
 9181 Fit       0.020161
 9182 Fit       0.017072
 9183 Fit       0.013877
 9184 Fit       0.011126
 9185 Fit       0.008962
 9186 Fit       0.007330
 9187 Fit       0.006114
 9188 Fit       0.006338
 9189 Fit       0.007683
 9190 Fit       0.009552
 9191 Fit       0.012138
 9192 Fit       0.015599
 9193 Fit       0.019862
 9194 Fit       0.024226
 9195 Fit       0.024227
 9196 Fit       0.019863
 9197 Fit       0.015600
 9198 Fit       0.012138
 9199 Fit       0.009552
 9200 Fit       0.007683
 9201 Fit       0.006338
 9202 Fit       0.006601
 9203 Fit       0.008052
 9204 Fit       0.010106
 9205 Fit       0.013010
 9206 Fit       0.017005
 9207 Fit       0.022078
 9208 Fit       0.022077
 9209 Fit       0.017004
 9210 Fit       0.013009
 9211 Fit       0.010104
 9212 Fit       0.008050
 9213 Fit       0.006599
 9214 Fit       0.006878
 9215 Fit       0.008388
 9216 Fit       0.010518
 9217 Fit       0.013520
 9218 Fit       0.017630
 9219 Fit       0.022815
 9220 Fit       0.022813
 9221 Fit       0.017626
 9222 Fit       0.013516
 9223 Fit       0.010514
 9224 Fit       0.008384
 9225 Fit       0.006874
 9226 Fit       0.007143
 9227 Fit       0.008650
 9228 Fit       0.010729
 9229 Fit       0.013578
 9230 Fit       0.017347
 9231 Fit       0.021918
 9232 Fit       0.026522
 9233 Fit       0.026519
 9234 Fit       0.021915
 9235 Fit       0.017342
 9236 Fit       0.013572
 9237 Fit       0.010723
 9238 Fit       0.008644
 9239 Fit       0.007138
 9240 Fit       0.007375
 9241 Fit       0.008823
 9242 Fit       0.010748
 9243 Fit       0.013269
 9244 Fit       0.016429
 9245 Fit       0.020038
 9246 Fit       0.023464
 9247 Fit       0.025641
 9248 Fit       0.025640
 9249 Fit       0.023461
 9250 Fit       0.020033
 9251 Fit       0.016423
 9252 Fit       0.013262
 9253 Fit       0.010741
 9254 Fit       0.008816
 9255 Fit       0.007369
 9256 Fit       0.008912
 9257 Fit       0.010629
 9258 Fit       0.012760
 9259 Fit       0.015272
 9260 Fit       0.017957
 9261 Fit       0.020350
 9262 Fit       0.021802
 9263 Fit       0.021800
 9264 Fit       0.020346
 9265 Fit       0.017951
 9266 Fit       0.015265
 9267 Fit       0.012752
 9268 Fit       0.010621
 9269 Fit       0.008905
 9270 Fit       0.008931
 9271 Fit       0.010429
 9272 Fit       0.012191
 9273 Fit       0.014149
 9274 Fit       0.016116
 9275 Fit       0.017773
 9276 Fit       0.018739
 9277 Fit       0.018737
 9278 Fit       0.017770
 9279 Fit       0.016110
 9280 Fit       0.014142
 9281 Fit       0.012184
 9282 Fit       0.010421
 9283 Fit       0.008923
 9284 Fit       0.010187
 9285 Fit       0.011639
 9286 Fit       0.013169
 9287 Fit       0.014629
 9288 Fit       0.015804
 9289 Fit       0.016467
 9290 Fit       0.016466
 9291 Fit       0.015800
 9292 Fit       0.014623
 9293 Fit       0.013162
 9294 Fit       0.011631
 9295 Fit       0.010179
 9296 Fit       0.011123
 9297 Fit       0.012338
 9298 Fit       0.013449
 9299 Fit       0.014313
 9300 Fit       0.014789
 9301 Fit       0.014788
 9302 Fit       0.014310
 9303 Fit       0.013444
 9304 Fit       0.012331
 9305 Fit       0.011116
 9306 Fit       0.012492
 9307 Fit       0.013150
 9308 Fit       0.013506
 9309 Fit       0.013505
 9310 Fit       0.013147
 9311 Fit       0.012487
 9312 Fit       0.009346
 9313 Fit       0.009600
 9314 Fit       0.009600
 9315 Fit       0.009348
 9316 Fit       0.008811
 9317 Fit       0.009566
 9318 Fit       0.010145
 9319 Fit       0.010461
 9320 Fit       0.010462
 9321 Fit       0.010147
 9322 Fit       0.009569
 9323 Fit       0.008815
 9324 Fit       0.008462
 9325 Fit       0.009473
 9326 Fit       0.010412
 9327 Fit       0.011150
 9328 Fit       0.011561
 9329 Fit       0.011561
 9330 Fit       0.011152
 9331 Fit       0.010415
 9332 Fit       0.009477
 9333 Fit       0.008466
 9334 Fit       0.007868
 9335 Fit       0.009043
 9336 Fit       0.010292
 9337 Fit       0.011495
 9338 Fit       0.012472
 9339 Fit       0.013028
 9340 Fit       0.013028
 9341 Fit       0.012474
 9342 Fit       0.011498
 9343 Fit       0.010295
 9344 Fit       0.009046
 9345 Fit       0.007872
 9346 Fit       0.007126
 9347 Fit       0.008325
 9348 Fit       0.009734
 9349 Fit       0.011298
 9350 Fit       0.012870
 9351 Fit       0.014196
 9352 Fit       0.014970
 9353 Fit       0.014971
 9354 Fit       0.014198
 9355 Fit       0.012872
 9356 Fit       0.011300
 9357 Fit       0.009737
 9358 Fit       0.008327
 9359 Fit       0.007128
 9360 Fit       0.007456
 9361 Fit       0.008832
 9362 Fit       0.010511
 9363 Fit       0.012453
 9364 Fit       0.014490
 9365 Fit       0.016277
 9366 Fit       0.017350
 9367 Fit       0.017351
 9368 Fit       0.016278
 9369 Fit       0.014491
 9370 Fit       0.012454
 9371 Fit       0.010512
 9372 Fit       0.008834
 9373 Fit       0.007458
 9374 Fit       0.007802
 9375 Fit       0.009347
 9376 Fit       0.011288
 9377 Fit       0.013609
 9378 Fit       0.016130
 9379 Fit       0.018413
 9380 Fit       0.019816
 9381 Fit       0.019816
 9382 Fit       0.018414
 9383 Fit       0.016130
 9384 Fit       0.013609
 9385 Fit       0.011288
 9386 Fit       0.009347
 9387 Fit       0.007802
 9388 Fit       0.006842
 9389 Fit       0.008128
 9390 Fit       0.009799
 9391 Fit       0.011930
 9392 Fit       0.014523
 9393 Fit       0.017392
 9394 Fit       0.020035
 9395 Fit       0.021678
 9396 Fit       0.021677
 9397 Fit       0.020035
 9398 Fit       0.017391
 9399 Fit       0.014522
 9400 Fit       0.011929
 9401 Fit       0.009797
 9402 Fit       0.008126
 9403 Fit       0.006841
 9404 Fit       0.007071
 9405 Fit       0.008397
 9406 Fit       0.010118
 9407 Fit       0.012310
 9408 Fit       0.014971
 9409 Fit       0.017907
 9410 Fit       0.020604
 9411 Fit       0.022276
 9412 Fit       0.022276
 9413 Fit       0.020603
 9414 Fit       0.017905
 9415 Fit       0.014969
 9416 Fit       0.012307
 9417 Fit       0.010115
 9418 Fit       0.008394
 9419 Fit       0.007068
 9420 Fit       0.008583
 9421 Fit       0.010267
 9422 Fit       0.012374
 9423 Fit       0.014879
 9424 Fit       0.017582
 9425 Fit       0.020013
 9426 Fit       0.021498
 9427 Fit       0.021497
 9428 Fit       0.020012
 9429 Fit       0.017579
 9430 Fit       0.014875
 9431 Fit       0.012370
 9432 Fit       0.010263
 9433 Fit       0.008579
 9434 Fit       0.008679
 9435 Fit       0.010253
 9436 Fit       0.012163
 9437 Fit       0.014358
 9438 Fit       0.016643
 9439 Fit       0.018631
 9440 Fit       0.019816
 9441 Fit       0.019815
 9442 Fit       0.018629
 9443 Fit       0.016639
 9444 Fit       0.014353
 9445 Fit       0.012158
 9446 Fit       0.010248
 9447 Fit       0.008673
 9448 Fit       0.008692
 9449 Fit       0.010113
 9450 Fit       0.011774
 9451 Fit       0.013605
 9452 Fit       0.015433
 9453 Fit       0.016965
 9454 Fit       0.017854
 9455 Fit       0.017853
 9456 Fit       0.016962
 9457 Fit       0.015429
 9458 Fit       0.013600
 9459 Fit       0.011768
 9460 Fit       0.010107
 9461 Fit       0.008687
 9462 Fit       0.009894
 9463 Fit       0.011303
 9464 Fit       0.012793
 9465 Fit       0.014219
 9466 Fit       0.015371
 9467 Fit       0.016023
 9468 Fit       0.016022
 9469 Fit       0.015368
 9470 Fit       0.014215
 9471 Fit       0.012787
 9472 Fit       0.011297
 9473 Fit       0.009888
 9474 Fit       0.010816
 9475 Fit       0.012019
 9476 Fit       0.013129
 9477 Fit       0.013997
 9478 Fit       0.014478
 9479 Fit       0.014477
 9480 Fit       0.013995
 9481 Fit       0.013125
 9482 Fit       0.012014
 9483 Fit       0.010810
 9484 Fit       0.011320
 9485 Fit       0.012193
 9486 Fit       0.012858
 9487 Fit       0.013219
 9488 Fit       0.013219
 9489 Fit       0.012855
 9490 Fit       0.012189
 9491 Fit       0.011315
 9492 Fit       0.009217
 9493 Fit       0.009457
 9494 Fit       0.009457
 9495 Fit       0.009219
 9496 Fit       0.008785
 9497 Fit       0.009504
 9498 Fit       0.010055
 9499 Fit       0.010355
 9500 Fit       0.010356
 9501 Fit       0.010056
 9502 Fit       0.009506
 9503 Fit       0.008788
 9504 Fit       0.008519
 9505 Fit       0.009483
 9506 Fit       0.010372
 9507 Fit       0.011068
 9508 Fit       0.011453
 9509 Fit       0.011454
 9510 Fit       0.011069
 9511 Fit       0.010373
 9512 Fit       0.009485
 9513 Fit       0.008522
 9514 Fit       0.008002
 9515 Fit       0.009112
 9516 Fit       0.010275
 9517 Fit       0.011379
 9518 Fit       0.012265
 9519 Fit       0.012764
 9520 Fit       0.012764
 9521 Fit       0.012266
 9522 Fit       0.011380
 9523 Fit       0.010277
 9524 Fit       0.009114
 9525 Fit       0.008003
 9526 Fit       0.008449
 9527 Fit       0.009734
 9528 Fit       0.011118
 9529 Fit       0.012469
 9530 Fit       0.013578
 9531 Fit       0.014213
 9532 Fit       0.014213
 9533 Fit       0.013579
 9534 Fit       0.012469
 9535 Fit       0.011119
 9536 Fit       0.009735
 9537 Fit       0.008450
 9538 Fit       0.007637
 9539 Fit       0.008878
 9540 Fit       0.010325
 9541 Fit       0.011917
 9542 Fit       0.013503
 9543 Fit       0.014831
 9544 Fit       0.015601
 9545 Fit       0.015601
 9546 Fit       0.014831
 9547 Fit       0.013503
 9548 Fit       0.011917
 9549 Fit       0.010325
 9550 Fit       0.008878
 9551 Fit       0.007636
 9552 Fit       0.007915
 9553 Fit       0.009240
 9554 Fit       0.010800
 9555 Fit       0.012537
 9556 Fit       0.014287
 9557 Fit       0.015766
 9558 Fit       0.016630
 9559 Fit       0.016630
 9560 Fit       0.015766
 9561 Fit       0.014286
 9562 Fit       0.012536
 9563 Fit       0.010799
 9564 Fit       0.009239
 9565 Fit       0.007914
 9566 Fit       0.008133
 9567 Fit       0.009490
 9568 Fit       0.011087
 9569 Fit       0.012863
 9570 Fit       0.014651
 9571 Fit       0.016160
 9572 Fit       0.017041
 9573 Fit       0.017040
 9574 Fit       0.016159
 9575 Fit       0.014649
 9576 Fit       0.012861
 9577 Fit       0.011085
 9578 Fit       0.009487
 9579 Fit       0.008130
 9580 Fit       0.008271
 9581 Fit       0.009603
 9582 Fit       0.011153
 9583 Fit       0.012853
 9584 Fit       0.014543
 9585 Fit       0.015953
 9586 Fit       0.016769
 9587 Fit       0.016769
 9588 Fit       0.015952
 9589 Fit       0.014541
 9590 Fit       0.012851
 9591 Fit       0.011150
 9592 Fit       0.009600
 9593 Fit       0.008268
 9594 Fit       0.009585
 9595 Fit       0.011017
 9596 Fit       0.012555
 9597 Fit       0.014050
 9598 Fit       0.015273
 9599 Fit       0.015971
 9600 Fit       0.015971
 9601 Fit       0.015272
 9602 Fit       0.014047
 9603 Fit       0.012552
 9604 Fit       0.011014
 9605 Fit       0.009581
 9606 Fit       0.009460
 9607 Fit       0.010736
 9608 Fit       0.012068
 9609 Fit       0.013328
 9610 Fit       0.014336
 9611 Fit       0.014902
 9612 Fit       0.014901
 9613 Fit       0.014334
 9614 Fit       0.013325
 9615 Fit       0.012065
 9616 Fit       0.010732
 9617 Fit       0.009456
 9618 Fit       0.010370
 9619 Fit       0.011494
 9620 Fit       0.012528
 9621 Fit       0.013335
 9622 Fit       0.013780
 9623 Fit       0.013780
 9624 Fit       0.013333
 9625 Fit       0.012525
 9626 Fit       0.011491
 9627 Fit       0.010366
 9628 Fit       0.010907
 9629 Fit       0.011745
 9630 Fit       0.012385
 9631 Fit       0.012734
 9632 Fit       0.012733
 9633 Fit       0.012383
 9634 Fit       0.011742
 9635 Fit       0.010903
 9636 Fit       0.011808
 9637 Fit       0.011808
 9638 Fit       0.009063
 9639 Fit       0.009285
 9640 Fit       0.009286
 9641 Fit       0.009064
 9642 Fit       0.009337
 9643 Fit       0.009840
 9644 Fit       0.010114
 9645 Fit       0.010114
 9646 Fit       0.009841
 9647 Fit       0.009339
 9648 Fit       0.009297
 9649 Fit       0.010086
 9650 Fit       0.010696
 9651 Fit       0.011032
 9652 Fit       0.011032
 9653 Fit       0.010697
 9654 Fit       0.010087
 9655 Fit       0.009298
 9656 Fit       0.008923
 9657 Fit       0.009923
 9658 Fit       0.010848
 9659 Fit       0.011575
 9660 Fit       0.011978
 9661 Fit       0.011978
 9662 Fit       0.011575
 9663 Fit       0.010849
 9664 Fit       0.009924
 9665 Fit       0.008923
 9666 Fit       0.009374
 9667 Fit       0.010493
 9668 Fit       0.011542
 9669 Fit       0.012375
 9670 Fit       0.012840
 9671 Fit       0.012840
 9672 Fit       0.012375
 9673 Fit       0.011542
 9674 Fit       0.010493
 9675 Fit       0.009374
 9676 Fit       0.008583
 9677 Fit       0.009733
 9678 Fit       0.010931
 9679 Fit       0.012063
 9680 Fit       0.012968
 9681 Fit       0.013476
 9682 Fit       0.013475
 9683 Fit       0.012967
 9684 Fit       0.012063
 9685 Fit       0.010931
 9686 Fit       0.009732
 9687 Fit       0.008582
 9688 Fit       0.008782
 9689 Fit       0.009955
 9690 Fit       0.011176
 9691 Fit       0.012330
 9692 Fit       0.013251
 9693 Fit       0.013767
 9694 Fit       0.013767
 9695 Fit       0.013250
 9696 Fit       0.012329
 9697 Fit       0.011175
 9698 Fit       0.009953
 9699 Fit       0.008780
 9700 Fit       0.010020
 9701 Fit       0.011203
 9702 Fit       0.012311
 9703 Fit       0.013190
 9704 Fit       0.013681
 9705 Fit       0.013681
 9706 Fit       0.013189
 9707 Fit       0.012310
 9708 Fit       0.011201
 9709 Fit       0.010018
 9710 Fit       0.009938
 9711 Fit       0.011032
 9712 Fit       0.012043
 9713 Fit       0.012835
 9714 Fit       0.013274
 9715 Fit       0.013274
 9716 Fit       0.012834
 9717 Fit       0.012041
 9718 Fit       0.011030
 9719 Fit       0.009935
 9720 Fit       0.010716
 9721 Fit       0.011601
 9722 Fit       0.012285
 9723 Fit       0.012660
 9724 Fit       0.012659
 9725 Fit       0.012284
 9726 Fit       0.011599
 9727 Fit       0.010713
 9728 Fit       0.011069
 9729 Fit       0.011642
 9730 Fit       0.011954
 9731 Fit       0.011953
 9732 Fit       0.011641
 9733 Fit       0.011067
 9734 Fit       0.009412
 9735 Fit       0.009645
 9736 Fit       0.009645
 9737 Fit       0.009412
 9738 Fit       0.009532
 9739 Fit       0.010029
 9740 Fit       0.010299
 9741 Fit       0.010299
 9742 Fit       0.010029
 9743 Fit       0.009533
 9744 Fit       0.009299
 9745 Fit       0.010021
 9746 Fit       0.010574
 9747 Fit       0.010875
 9748 Fit       0.010875
 9749 Fit       0.010574
 9750 Fit       0.010021
 9751 Fit       0.009299
 9752 Fit       0.009622
 9753 Fit       0.010389
 9754 Fit       0.010978
 9755 Fit       0.011301
 9756 Fit       0.011301
 9757 Fit       0.010978
 9758 Fit       0.010389
 9759 Fit       0.009622
 9760 Fit       0.009812
 9761 Fit       0.010592
 9762 Fit       0.011190
 9763 Fit       0.011518
 9764 Fit       0.011518
 9765 Fit       0.011190
 9766 Fit       0.010591
 9767 Fit       0.009811
 9768 Fit       0.009855
 9769 Fit       0.010612
 9770 Fit       0.011191
 9771 Fit       0.011506
 9772 Fit       0.011506
 9773 Fit       0.011190
 9774 Fit       0.010611
 9775 Fit       0.009853
 9776 Fit       0.010464
 9777 Fit       0.010999
 9778 Fit       0.011290
 9779 Fit       0.011290
 9780 Fit       0.010999
 9781 Fit       0.010463
 9782 Fit       0.010922
 9783 Fit       0.010922
 -----------------------------------------------------------------
 Leave Link  602 at Thu Apr 21 16:35:03 2022, MaxMem=   104857600 cpu:               0.6 elap:               0.6
 (Enter /opt/ohpc/pub/libs/gaussian/g16-A.03/haswell/g16/l9999.exe)

 Test job not archived.
 1\1\GINC-CASCADEB033\SP\RB3LYP\6-311++G(d,p)\C5H6N2\MNG228\21-Apr-2022
 \0\\#P B3LYP/6-311++G(d,p) Geom=Allcheck SCF=Tight EmpiricalDispersion
 =GD3BJ Pop=CHELPG SP IOp(6/33=2)\\1VI geo opt\\0,1\H,0,0.9829413727,-0
 .6987411063,-0.0053787524\C,0,2.0541928701,-0.716527213,0.1373167747\H
 ,0,2.4210236832,-0.7239446026,1.1552404697\C,0,2.8550302872,-0.7282177
 684,-0.9254271025\H,0,2.4532942267,-0.7203176773,-1.9313244318\N,0,4.2
 600281266,-0.751190749,-0.9047614122\C,0,5.1096475035,-0.7655883522,0.
 1793408513\H,0,4.7493933225,-0.7599327892,1.1949097042\N,0,6.367225529
 8,-0.7860859577,-0.1855005329\C,0,6.3568408697,-0.7854279779,-1.566898
 3187\H,0,7.2721205174,-0.8002082651,-2.1364530113\C,0,5.0725264148,-0.
 7640911477,-2.0319343622\H,0,4.6562352758,-0.7570263936,-3.025029876\\
 Version=ES64L-G16RevA.03\State=1-A\HF=-303.7132865\RMSD=6.328e-09\Dipo
 le=-1.2324343,0.0204096,-0.5071895\Quadrupole=-1.2200555,-2.7822538,4.
 0023093,-0.0251152,-2.7122425,0.039624\PG=C01 [X(C5H6N2)]\\@


 DEFINE YOUR TERMS, YOU WILL PERMIT ME AGAIN TO SAY, 
 OR WE SHALL NEVER UNDERSTAND ONE ANOTHER.

                                    -- VOLTAIRE
 Job cpu time:       0 days  0 hours  1 minutes  0.1 seconds.
 Elapsed time:       0 days  0 hours  1 minutes  0.8 seconds.
 File lengths (MBytes):  RWF=    272 Int=      0 D2E=      0 Chk=     32 Scr=     32
 Normal termination of Gaussian 16 at Thu Apr 21 16:35:03 2022.
