1VI geo opt                                                             
SP        RB3LYP                                                      6-311++G(d,p)       
Number of atoms                            I               13
Info1-9                                    I   N=           9
           5           4           0           0           0         111
           1          18        -502
Full Title                                 C   N=           1
1VI geo opt 
Route                                      C   N=           9
#P B3LYP/6-311++G(d,p) Geom=Allcheck SCF=Tight EmpiricalDisp
ersion=GD3BJ Pop=CHELPG SP IOp(6/33=2)          
Charge                                     I                0
Multiplicity                               I                1
Number of electrons                        I               50
Number of alpha electrons                  I               25
Number of beta electrons                   I               25
Number of basis functions                  I              196
Number of independent functions            I              196
Number of point charges in /Mol/           I                0
Number of translation vectors              I                0
Atomic numbers                             I   N=          13
           1           6           1           6           1           7
           6           1           7           6           1           6
           1
Nuclear charges                            R   N=          13
  1.00000000E+00  6.00000000E+00  1.00000000E+00  6.00000000E+00  1.00000000E+00
  7.00000000E+00  6.00000000E+00  1.00000000E+00  7.00000000E+00  6.00000000E+00
  1.00000000E+00  6.00000000E+00  1.00000000E+00
Current cartesian coordinates              R   N=          39
 -6.81676279E+00  1.41261355E-01  4.09908491E-03 -4.90656138E+00 -5.82181083E-01
  2.62126660E-03 -4.66925829E+00 -2.61303364E+00  4.78508445E-03 -2.97642795E+00
  1.02978891E+00 -9.83820331E-04 -3.28372939E+00  3.05353992E+00 -2.67030546E-03
 -3.98868505E-01  3.88925924E-01 -3.27133030E-03  6.99387293E-01 -1.97122608E+00
 -2.12699698E-03 -4.00469467E-01 -3.68498807E+00 -4.37258731E-03  3.17060872E+00
 -1.84006818E+00  7.58384907E-04  3.74496446E+00  7.06225028E-01  2.53429981E-03
  5.67384687E+00  1.36219506E+00  4.78249552E-03  1.58077133E+00  2.11385291E+00
 -6.87832153E-05  1.24138901E+00  4.12026305E+00 -8.88949699E-04
Number of symbols in /Mol/                 I                0
Force Field                                I                0
Atom Types                                 C   N=          13
                                                            
                                                            
                                    
Int Atom Types                             I   N=          13
           0           0           0           0           0           0
           0           0           0           0           0           0
           0
MM charges                                 R   N=          13
  0.00000000E+00  0.00000000E+00  0.00000000E+00  0.00000000E+00  0.00000000E+00
  0.00000000E+00  0.00000000E+00  0.00000000E+00  0.00000000E+00  0.00000000E+00
  0.00000000E+00  0.00000000E+00  0.00000000E+00
Integer atomic weights                     I   N=          13
           1          12           1          12           1          14
          12           1          14          12           1          12
           1
Real atomic weights                        R   N=          13
  1.00782504E+00  1.20000000E+01  1.00782504E+00  1.20000000E+01  1.00782504E+00
  1.40030740E+01  1.20000000E+01  1.00782504E+00  1.40030740E+01  1.20000000E+01
  1.00782504E+00  1.20000000E+01  1.00782504E+00
Atom fragment info                         I   N=          13
           0           0           0           0           0           0
           0           0           0           0           0           0
           0
Atom residue num                           I   N=          13
           0           0           0           0           0           0
           0           0           0           0           0           0
           0
Nuclear spins                              I   N=          13
           1           0           1           0           1           2
           0           1           2           0           1           0
           1
Nuclear ZEff                               R   N=          13
 -1.00000000E+00 -3.60000000E+00 -1.00000000E+00 -3.60000000E+00 -1.00000000E+00
 -4.55000000E+00 -3.60000000E+00 -1.00000000E+00 -4.55000000E+00 -3.60000000E+00
 -1.00000000E+00 -3.60000000E+00 -1.00000000E+00
Nuclear ZNuc                               R   N=          13
  1.00000000E+00  6.00000000E+00  1.00000000E+00  6.00000000E+00  1.00000000E+00
  7.00000000E+00  6.00000000E+00  1.00000000E+00  7.00000000E+00  6.00000000E+00
  1.00000000E+00  6.00000000E+00  1.00000000E+00
Nuclear QMom                               R   N=          13
  0.00000000E+00  0.00000000E+00  0.00000000E+00  0.00000000E+00  0.00000000E+00
  2.04400000E+00  0.00000000E+00  0.00000000E+00  2.04400000E+00  0.00000000E+00
  0.00000000E+00  0.00000000E+00  0.00000000E+00
Nuclear GFac                               R   N=          13
  2.79284600E+00  0.00000000E+00  2.79284600E+00  0.00000000E+00  2.79284600E+00
  4.03761000E-01  0.00000000E+00  2.79284600E+00  4.03761000E-01  0.00000000E+00
  2.79284600E+00  0.00000000E+00  2.79284600E+00
MicOpt                                     I   N=          13
          -1          -1          -1          -1          -1          -1
          -1          -1          -1          -1          -1          -1
          -1
Number of residues                         I                0
Number of secondary structures             I                0
Redundant internal dimensions              I   N=           4
          56          13          19          24
Redundant internal coordinate indices      I   N=         224
           1           2           0           0           2           3
           0           0           2           4           0           0
           4           5           0           0           4           6
           0           0           6           7           0           0
           6          12           0           0           7           8
           0           0           7           9           0           0
           9          10           0           0          10          11
           0           0          10          12           0           0
          12          13           0           0           1           2
           3           0           1           2           4           0
           3           2           4           0           2           4
           5           0           2           4           6           0
           5           4           6           0           4           6
           7           0           4           6          12           0
           7           6          12           0           6           7
           8           0           6           7           9           0
           8           7           9           0           7           9
          10           0           9          10          11           0
           9          10          12           0          11          10
          12           0           6          12          10           0
           6          12          13           0          10          12
          13           0           1           2           4           5
           1           2           4           6           3           2
           4           5           3           2           4           6
           2           4           6           7           2           4
           6          12           5           4           6           7
           5           4           6          12           4           6
           7           8           4           6           7           9
          12           6           7           8          12           6
           7           9           4           6          12          10
           4           6          12          13           7           6
          12          10           7           6          12          13
           6           7           9          10           8           7
           9          10           7           9          10          11
           7           9          10          12           9          10
          12           6           9          10          12          13
          11          10          12           6          11          10
          12          13
Redundant internal coordinates             R   N=          56
  2.04260632E+00  2.04467101E+00  2.51473165E+00  2.04695022E+00  2.65603526E+00
  2.60316818E+00  2.62571081E+00  2.03633742E+00  2.47470121E+00  2.61026756E+00
  2.03737309E+00  2.58169614E+00  2.03491098E+00  2.04914961E+00  2.08374479E+00
  2.15029086E+00  2.11591589E+00  2.20208746E+00  1.96518195E+00  2.25001705E+00
  2.18115040E+00  1.85201413E+00  2.13548612E+00  1.95330335E+00  2.19439571E+00
  1.84567383E+00  2.12045748E+00  1.92561102E+00  2.23711670E+00  1.84817555E+00
  2.11998203E+00  2.31502758E+00 -1.17126976E-04  3.14158852E+00 -3.14136031E+00
  3.45336378E-04 -1.14134220E-04 -3.13835562E+00  3.14158317E+00  3.34168547E-03
  3.04573539E-03 -3.13905090E+00 -3.14140530E+00 -3.16626476E-04  3.13898744E+00
 -3.12309042E-03  1.08814126E-04  3.14118359E+00  3.82825286E-04  3.14145102E+00
 -3.14145038E+00 -3.07771334E-04  1.18031318E-04 -3.14087413E+00  3.14122251E+00
  2.30342067E-04
ZRed-IntVec                                I   N=          56
           0           0           0           0           0           0
           0           0           0           0           0           0
           0           0           0           0           0           0
           0           0           0           0           0           0
           0           0           0           0           0           0
           0           0           0           0           0           0
           0           0           0           0           0           0
           0           0           0           0           0           0
           0           0           0           0           0           0
           0           0
ZRed-FPVec                                 R   N=          56
  0.00000000E+00  0.00000000E+00  0.00000000E+00  0.00000000E+00  0.00000000E+00
  0.00000000E+00  0.00000000E+00  0.00000000E+00  0.00000000E+00  0.00000000E+00
  0.00000000E+00  0.00000000E+00  0.00000000E+00  0.00000000E+00  0.00000000E+00
  0.00000000E+00  0.00000000E+00  0.00000000E+00  0.00000000E+00  0.00000000E+00
  0.00000000E+00  0.00000000E+00  0.00000000E+00  0.00000000E+00  0.00000000E+00
  0.00000000E+00  0.00000000E+00  0.00000000E+00  0.00000000E+00  0.00000000E+00
  0.00000000E+00  0.00000000E+00  0.00000000E+00  0.00000000E+00  0.00000000E+00
  0.00000000E+00  0.00000000E+00  0.00000000E+00  0.00000000E+00  0.00000000E+00
  0.00000000E+00  0.00000000E+00  0.00000000E+00  0.00000000E+00  0.00000000E+00
  0.00000000E+00  0.00000000E+00  0.00000000E+00  0.00000000E+00  0.00000000E+00
  0.00000000E+00  0.00000000E+00  0.00000000E+00  0.00000000E+00  0.00000000E+00
  0.00000000E+00
ZRed-Constraint1                           R   N=          56
  2.04260632E+00  2.04467101E+00  2.51473165E+00  2.04695022E+00  2.65603526E+00
  2.60316818E+00  2.62571081E+00  2.03633742E+00  2.47470121E+00  2.61026756E+00
  2.03737309E+00  2.58169614E+00  2.03491098E+00  2.04914961E+00  2.08374479E+00
  2.15029086E+00  2.11591589E+00  2.20208746E+00  1.96518195E+00  2.25001705E+00
  2.18115040E+00  1.85201413E+00  2.13548612E+00  1.95330335E+00  2.19439571E+00
  1.84567383E+00  2.12045748E+00  1.92561102E+00  2.23711670E+00  1.84817555E+00
  2.11998203E+00  2.31502758E+00 -1.17126976E-04  3.14158852E+00 -3.14136031E+00
  3.45336377E-04 -1.14134217E-04 -3.13835562E+00  3.14158317E+00  3.34168547E-03
  3.04573539E-03 -3.13905090E+00 -3.14140530E+00 -3.16626476E-04  3.13898744E+00
 -3.12309042E-03  1.08814125E-04  3.14118359E+00  3.82825286E-04  3.14145102E+00
 -3.14145038E+00 -3.07771334E-04  1.18031319E-04 -3.14087413E+00  3.14122251E+00
  2.30342067E-04
ZRed-Constraint2                           R   N=          56
  2.04260632E+00  2.04467101E+00  2.51473165E+00  2.04695022E+00  2.65603526E+00
  2.60316818E+00  2.62571081E+00  2.03633742E+00  2.47470121E+00  2.61026756E+00
  2.03737309E+00  2.58169614E+00  2.03491098E+00  2.04914961E+00  2.08374479E+00
  2.15029086E+00  2.11591589E+00  2.20208746E+00  1.96518195E+00  2.25001705E+00
  2.18115040E+00  1.85201413E+00  2.13548612E+00  1.95330335E+00  2.19439571E+00
  1.84567383E+00  2.12045748E+00  1.92561102E+00  2.23711670E+00  1.84817555E+00
  2.11998203E+00  2.31502758E+00 -1.17126976E-04  3.14158852E+00 -3.14136031E+00
  3.45336377E-04 -1.14134217E-04 -3.13835562E+00  3.14158317E+00  3.34168547E-03
  3.04573539E-03 -3.13905090E+00 -3.14140530E+00 -3.16626476E-04  3.13898744E+00
 -3.12309042E-03  1.08814125E-04  3.14118359E+00  3.82825286E-04  3.14145102E+00
 -3.14145038E+00 -3.07771334E-04  1.18031318E-04 -3.14087413E+00  3.14122251E+00
  2.30342067E-04
SymInf integers                            I   N=          26
           1           1           1           1           1           0
           0           0           0           0           0           0
           0           0           0           0           0           0
           0           0           0           0           0           0
           0           0
RotTr to input orientation                 R   N=          12
  9.67786868E-01 -9.63597584E-02 -2.32601322E-01 -2.43853989E-01 -1.28896320E-01
 -9.61208079E-01  6.26403238E-02  9.86965316E-01 -1.48241877E-01  8.54246289E+00
 -1.21838107E+00 -1.40269590E+00
Number of contracted shells                I               72
Number of primitive shells                 I              133
Pure/Cartesian d shells                    I                0
Pure/Cartesian f shells                    I                0
Highest angular momentum                   I                2
Largest degree of contraction              I                6
Shell types                                I   N=          72
           0           0           0           0           1           0
          -1          -1          -1          -1          -2           0
           0           0           0           1           0          -1
          -1          -1          -1          -2           0           0
           0           0           1           0          -1          -1
          -1          -1          -2           0          -1          -1
          -1          -1          -2           0           0           0
           0           1           0          -1          -1          -1
          -1          -2           0          -1          -1          -1
          -1          -2           0           0           0           0
           1           0          -1          -1          -1          -1
          -2           0           0           0           0           1
Number of primitives per shell             I   N=          72
           3           1           1           1           1           6
           3           1           1           1           1           3
           1           1           1           1           6           3
           1           1           1           1           3           1
           1           1           1           6           3           1
           1           1           1           6           3           1
           1           1           1           3           1           1
           1           1           6           3           1           1
           1           1           6           3           1           1
           1           1           3           1           1           1
           1           6           3           1           1           1
           1           3           1           1           1           1
Shell to atom map                          I   N=          72
           1           1           1           1           1           2
           2           2           2           2           2           3
           3           3           3           3           4           4
           4           4           4           4           5           5
           5           5           5           6           6           6
           6           6           6           7           7           7
           7           7           7           8           8           8
           8           8           9           9           9           9
           9           9          10          10          10          10
          10          10          11          11          11          11
          11          12          12          12          12          12
          12          13          13          13          13          13
Primitive exponents                        R   N=         133
  3.38650000E+01  5.09479000E+00  1.15879000E+00  3.25840000E-01  1.02741000E-01
  3.60000000E-02  7.50000000E-01  4.56324000E+03  6.82024000E+02  1.54973000E+02
  4.44553000E+01  1.30290000E+01  1.82773000E+00  2.09642000E+01  4.80331000E+00
  1.45933000E+00  4.83456000E-01  1.45585000E-01  4.38000000E-02  6.26000000E-01
  3.38650000E+01  5.09479000E+00  1.15879000E+00  3.25840000E-01  1.02741000E-01
  3.60000000E-02  7.50000000E-01  4.56324000E+03  6.82024000E+02  1.54973000E+02
  4.44553000E+01  1.30290000E+01  1.82773000E+00  2.09642000E+01  4.80331000E+00
  1.45933000E+00  4.83456000E-01  1.45585000E-01  4.38000000E-02  6.26000000E-01
  3.38650000E+01  5.09479000E+00  1.15879000E+00  3.25840000E-01  1.02741000E-01
  3.60000000E-02  7.50000000E-01  6.29348000E+03  9.49044000E+02  2.18776000E+02
  6.36916000E+01  1.88282000E+01  2.72023000E+00  3.06331000E+01  7.02614000E+00
  2.11205000E+00  6.84009000E-01  2.00878000E-01  6.39000000E-02  9.13000000E-01
  4.56324000E+03  6.82024000E+02  1.54973000E+02  4.44553000E+01  1.30290000E+01
  1.82773000E+00  2.09642000E+01  4.80331000E+00  1.45933000E+00  4.83456000E-01
  1.45585000E-01  4.38000000E-02  6.26000000E-01  3.38650000E+01  5.09479000E+00
  1.15879000E+00  3.25840000E-01  1.02741000E-01  3.60000000E-02  7.50000000E-01
  6.29348000E+03  9.49044000E+02  2.18776000E+02  6.36916000E+01  1.88282000E+01
  2.72023000E+00  3.06331000E+01  7.02614000E+00  2.11205000E+00  6.84009000E-01
  2.00878000E-01  6.39000000E-02  9.13000000E-01  4.56324000E+03  6.82024000E+02
  1.54973000E+02  4.44553000E+01  1.30290000E+01  1.82773000E+00  2.09642000E+01
  4.80331000E+00  1.45933000E+00  4.83456000E-01  1.45585000E-01  4.38000000E-02
  6.26000000E-01  3.38650000E+01  5.09479000E+00  1.15879000E+00  3.25840000E-01
  1.02741000E-01  3.60000000E-02  7.50000000E-01  4.56324000E+03  6.82024000E+02
  1.54973000E+02  4.44553000E+01  1.30290000E+01  1.82773000E+00  2.09642000E+01
  4.80331000E+00  1.45933000E+00  4.83456000E-01  1.45585000E-01  4.38000000E-02
  6.26000000E-01  3.38650000E+01  5.09479000E+00  1.15879000E+00  3.25840000E-01
  1.02741000E-01  3.60000000E-02  7.50000000E-01
Contraction coefficients                   R   N=         133
  2.54938145E-02  1.90373109E-01  8.52161486E-01  1.00000000E+00  1.00000000E+00
  1.00000000E+00  1.00000000E+00  1.96665025E-03  1.52306019E-02  7.61269097E-02
  2.60801033E-01  6.16462078E-01  2.21006028E-01  1.14660081E-01  9.19999648E-01
 -3.03068213E-03  1.00000000E+00  1.00000000E+00  1.00000000E+00  1.00000000E+00
  2.54938145E-02  1.90373109E-01  8.52161486E-01  1.00000000E+00  1.00000000E+00
  1.00000000E+00  1.00000000E+00  1.96665025E-03  1.52306019E-02  7.61269097E-02
  2.60801033E-01  6.16462078E-01  2.21006028E-01  1.14660081E-01  9.19999648E-01
 -3.03068213E-03  1.00000000E+00  1.00000000E+00  1.00000000E+00  1.00000000E+00
  2.54938145E-02  1.90373109E-01  8.52161486E-01  1.00000000E+00  1.00000000E+00
  1.00000000E+00  1.00000000E+00  1.96978815E-03  1.49612859E-02  7.35005308E-02
  2.48936766E-01  6.02459433E-01  2.56201759E-01  1.11906080E-01  9.21666655E-01
 -2.56919183E-03  1.00000000E+00  1.00000000E+00  1.00000000E+00  1.00000000E+00
  1.96665025E-03  1.52306019E-02  7.61269097E-02  2.60801033E-01  6.16462078E-01
  2.21006028E-01  1.14660081E-01  9.19999648E-01 -3.03068213E-03  1.00000000E+00
  1.00000000E+00  1.00000000E+00  1.00000000E+00  2.54938145E-02  1.90373109E-01
  8.52161486E-01  1.00000000E+00  1.00000000E+00  1.00000000E+00  1.00000000E+00
  1.96978815E-03  1.49612859E-02  7.35005308E-02  2.48936766E-01  6.02459433E-01
  2.56201759E-01  1.11906080E-01  9.21666655E-01 -2.56919183E-03  1.00000000E+00
  1.00000000E+00  1.00000000E+00  1.00000000E+00  1.96665025E-03  1.52306019E-02
  7.61269097E-02  2.60801033E-01  6.16462078E-01  2.21006028E-01  1.14660081E-01
  9.19999648E-01 -3.03068213E-03  1.00000000E+00  1.00000000E+00  1.00000000E+00
  1.00000000E+00  2.54938145E-02  1.90373109E-01  8.52161486E-01  1.00000000E+00
  1.00000000E+00  1.00000000E+00  1.00000000E+00  1.96665025E-03  1.52306019E-02
  7.61269097E-02  2.60801033E-01  6.16462078E-01  2.21006028E-01  1.14660081E-01
  9.19999648E-01 -3.03068213E-03  1.00000000E+00  1.00000000E+00  1.00000000E+00
  1.00000000E+00  2.54938145E-02  1.90373109E-01  8.52161486E-01  1.00000000E+00
  1.00000000E+00  1.00000000E+00  1.00000000E+00
P(S=P) Contraction coefficients            R   N=         133
  0.00000000E+00  0.00000000E+00  0.00000000E+00  0.00000000E+00  0.00000000E+00
  0.00000000E+00  0.00000000E+00  0.00000000E+00  0.00000000E+00  0.00000000E+00
  0.00000000E+00  0.00000000E+00  0.00000000E+00  4.02486927E-02  2.37593957E-01
  8.15853851E-01  1.00000000E+00  1.00000000E+00  1.00000000E+00  0.00000000E+00
  0.00000000E+00  0.00000000E+00  0.00000000E+00  0.00000000E+00  0.00000000E+00
  0.00000000E+00  0.00000000E+00  0.00000000E+00  0.00000000E+00  0.00000000E+00
  0.00000000E+00  0.00000000E+00  0.00000000E+00  4.02486927E-02  2.37593957E-01
  8.15853851E-01  1.00000000E+00  1.00000000E+00  1.00000000E+00  0.00000000E+00
  0.00000000E+00  0.00000000E+00  0.00000000E+00  0.00000000E+00  0.00000000E+00
  0.00000000E+00  0.00000000E+00  0.00000000E+00  0.00000000E+00  0.00000000E+00
  0.00000000E+00  0.00000000E+00  0.00000000E+00  3.83119186E-02  2.37403116E-01
  8.17592398E-01  1.00000000E+00  1.00000000E+00  1.00000000E+00  0.00000000E+00
  0.00000000E+00  0.00000000E+00  0.00000000E+00  0.00000000E+00  0.00000000E+00
  0.00000000E+00  4.02486927E-02  2.37593957E-01  8.15853851E-01  1.00000000E+00
  1.00000000E+00  1.00000000E+00  0.00000000E+00  0.00000000E+00  0.00000000E+00
  0.00000000E+00  0.00000000E+00  0.00000000E+00  0.00000000E+00  0.00000000E+00
  0.00000000E+00  0.00000000E+00  0.00000000E+00  0.00000000E+00  0.00000000E+00
  0.00000000E+00  3.83119186E-02  2.37403116E-01  8.17592398E-01  1.00000000E+00
  1.00000000E+00  1.00000000E+00  0.00000000E+00  0.00000000E+00  0.00000000E+00
  0.00000000E+00  0.00000000E+00  0.00000000E+00  0.00000000E+00  4.02486927E-02
  2.37593957E-01  8.15853851E-01  1.00000000E+00  1.00000000E+00  1.00000000E+00
  0.00000000E+00  0.00000000E+00  0.00000000E+00  0.00000000E+00  0.00000000E+00
  0.00000000E+00  0.00000000E+00  0.00000000E+00  0.00000000E+00  0.00000000E+00
  0.00000000E+00  0.00000000E+00  0.00000000E+00  0.00000000E+00  4.02486927E-02
  2.37593957E-01  8.15853851E-01  1.00000000E+00  1.00000000E+00  1.00000000E+00
  0.00000000E+00  0.00000000E+00  0.00000000E+00  0.00000000E+00  0.00000000E+00
  0.00000000E+00  0.00000000E+00  0.00000000E+00
Coordinates of each shell                  R   N=         216
 -6.81676279E+00  1.41261355E-01  4.09908491E-03 -6.81676279E+00  1.41261355E-01
  4.09908491E-03 -6.81676279E+00  1.41261355E-01  4.09908491E-03 -6.81676279E+00
  1.41261355E-01  4.09908491E-03 -6.81676279E+00  1.41261355E-01  4.09908491E-03
 -4.90656138E+00 -5.82181083E-01  2.62126660E-03 -4.90656138E+00 -5.82181083E-01
  2.62126660E-03 -4.90656138E+00 -5.82181083E-01  2.62126660E-03 -4.90656138E+00
 -5.82181083E-01  2.62126660E-03 -4.90656138E+00 -5.82181083E-01  2.62126660E-03
 -4.90656138E+00 -5.82181083E-01  2.62126660E-03 -4.66925829E+00 -2.61303364E+00
  4.78508445E-03 -4.66925829E+00 -2.61303364E+00  4.78508445E-03 -4.66925829E+00
 -2.61303364E+00  4.78508445E-03 -4.66925829E+00 -2.61303364E+00  4.78508445E-03
 -4.66925829E+00 -2.61303364E+00  4.78508445E-03 -2.97642795E+00  1.02978891E+00
 -9.83820331E-04 -2.97642795E+00  1.02978891E+00 -9.83820331E-04 -2.97642795E+00
  1.02978891E+00 -9.83820331E-04 -2.97642795E+00  1.02978891E+00 -9.83820331E-04
 -2.97642795E+00  1.02978891E+00 -9.83820331E-04 -2.97642795E+00  1.02978891E+00
 -9.83820331E-04 -3.28372939E+00  3.05353992E+00 -2.67030546E-03 -3.28372939E+00
  3.05353992E+00 -2.67030546E-03 -3.28372939E+00  3.05353992E+00 -2.67030546E-03
 -3.28372939E+00  3.05353992E+00 -2.67030546E-03 -3.28372939E+00  3.05353992E+00
 -2.67030546E-03 -3.98868505E-01  3.88925924E-01 -3.27133030E-03 -3.98868505E-01
  3.88925924E-01 -3.27133030E-03 -3.98868505E-01  3.88925924E-01 -3.27133030E-03
 -3.98868505E-01  3.88925924E-01 -3.27133030E-03 -3.98868505E-01  3.88925924E-01
 -3.27133030E-03 -3.98868505E-01  3.88925924E-01 -3.27133030E-03  6.99387293E-01
 -1.97122608E+00 -2.12699698E-03  6.99387293E-01 -1.97122608E+00 -2.12699698E-03
  6.99387293E-01 -1.97122608E+00 -2.12699698E-03  6.99387293E-01 -1.97122608E+00
 -2.12699698E-03  6.99387293E-01 -1.97122608E+00 -2.12699698E-03  6.99387293E-01
 -1.97122608E+00 -2.12699698E-03 -4.00469467E-01 -3.68498807E+00 -4.37258731E-03
 -4.00469467E-01 -3.68498807E+00 -4.37258731E-03 -4.00469467E-01 -3.68498807E+00
 -4.37258731E-03 -4.00469467E-01 -3.68498807E+00 -4.37258731E-03 -4.00469467E-01
 -3.68498807E+00 -4.37258731E-03  3.17060872E+00 -1.84006818E+00  7.58384907E-04
  3.17060872E+00 -1.84006818E+00  7.58384907E-04  3.17060872E+00 -1.84006818E+00
  7.58384907E-04  3.17060872E+00 -1.84006818E+00  7.58384907E-04  3.17060872E+00
 -1.84006818E+00  7.58384907E-04  3.17060872E+00 -1.84006818E+00  7.58384907E-04
  3.74496446E+00  7.06225028E-01  2.53429981E-03  3.74496446E+00  7.06225028E-01
  2.53429981E-03  3.74496446E+00  7.06225028E-01  2.53429981E-03  3.74496446E+00
  7.06225028E-01  2.53429981E-03  3.74496446E+00  7.06225028E-01  2.53429981E-03
  3.74496446E+00  7.06225028E-01  2.53429981E-03  5.67384687E+00  1.36219506E+00
  4.78249552E-03  5.67384687E+00  1.36219506E+00  4.78249552E-03  5.67384687E+00
  1.36219506E+00  4.78249552E-03  5.67384687E+00  1.36219506E+00  4.78249552E-03
  5.67384687E+00  1.36219506E+00  4.78249552E-03  1.58077133E+00  2.11385291E+00
 -6.87832153E-05  1.58077133E+00  2.11385291E+00 -6.87832153E-05  1.58077133E+00
  2.11385291E+00 -6.87832153E-05  1.58077133E+00  2.11385291E+00 -6.87832153E-05
  1.58077133E+00  2.11385291E+00 -6.87832153E-05  1.58077133E+00  2.11385291E+00
 -6.87832153E-05  1.24138901E+00  4.12026305E+00 -8.88949699E-04  1.24138901E+00
  4.12026305E+00 -8.88949699E-04  1.24138901E+00  4.12026305E+00 -8.88949699E-04
  1.24138901E+00  4.12026305E+00 -8.88949699E-04  1.24138901E+00  4.12026305E+00
 -8.88949699E-04
Num ILSW                                   I              100
ILSW                                       I   N=         100
           0           0           0           0           2           0
           0           0           0           0         402          -1
           5           0           0           0           0           0
           0           0           0           0           0           0
           1           0           0           0           0           0
           0           0      100000           0          -1           0
           0           0           0           0           0           0
           0           0           0           1           0           0
           0 -2000000000           1           0           0           0
           0           0         141          52           0           0
           0           0           5           0           0           0
           0           0           0          13           0           1
           0           0           0           0           0           0
           0           0           0           0           0           0
           0           0           0           0           0           0
           0           0           0           0           0           0
           0           0           0           0
Num RLSW                                   I               52
RLSW                                       R   N=          52
  8.00000000E-01  7.20000000E-01  1.00000000E+00  8.10000000E-01  2.00000000E-01
  0.00000000E+00  0.00000000E+00  1.00000000E+00  0.00000000E+00  0.00000000E+00
  0.00000000E+00  0.00000000E+00  1.00000000E+00  0.00000000E+00  0.00000000E+00
  0.00000000E+00  0.00000000E+00  1.00000000E+00  0.00000000E+00  0.00000000E+00
  0.00000000E+00  0.00000000E+00  1.00000000E+00  0.00000000E+00  0.00000000E+00
  0.00000000E+00  0.00000000E+00  1.00000000E+00  0.00000000E+00  0.00000000E+00
  0.00000000E+00  0.00000000E+00  1.00000000E+00  0.00000000E+00  0.00000000E+00
  0.00000000E+00  0.00000000E+00  0.00000000E+00  1.00000000E+00  1.00000000E+00
  0.00000000E+00  1.00000000E+00  0.00000000E+00  0.00000000E+00  0.00000000E+00
  0.00000000E+00  0.00000000E+00  0.00000000E+00  0.00000000E+00  0.00000000E+00
  0.00000000E+00  0.00000000E+00
MxBond                                     I                3
NBond                                      I   N=          13
           1           3           1           3           1           3
           3           1           2           3           1           3
           1