 Entering Gaussian System, Link 0=g16
 Initial command:
 /opt/ohpc/pub/libs/gaussian/g16-A.03/haswell/g16/l1.exe "g16_scratch/Gau-379533.inp" -scrdir="g16_scratch/"
 Entering Link 1 = /opt/ohpc/pub/libs/gaussian/g16-A.03/haswell/g16/l1.exe PID=    379534.
  
 Copyright (c) 1988,1990,1992,1993,1995,1998,2003,2009,2016,
            Gaussian, Inc.  All Rights Reserved.
  
 This is part of the Gaussian(R) 16 program.  It is based on
 the Gaussian(R) 09 system (copyright 2009, Gaussian, Inc.),
 the Gaussian(R) 03 system (copyright 2003, Gaussian, Inc.),
 the Gaussian(R) 98 system (copyright 1998, Gaussian, Inc.),
 the Gaussian(R) 94 system (copyright 1995, Gaussian, Inc.),
 the Gaussian 92(TM) system (copyright 1992, Gaussian, Inc.),
 the Gaussian 90(TM) system (copyright 1990, Gaussian, Inc.),
 the Gaussian 88(TM) system (copyright 1988, Gaussian, Inc.),
 the Gaussian 86(TM) system (copyright 1986, Carnegie Mellon
 University), and the Gaussian 82(TM) system (copyright 1983,
 Carnegie Mellon University). Gaussian is a federally registered
 trademark of Gaussian, Inc.
  
 This software contains proprietary and confidential information,
 including trade secrets, belonging to Gaussian, Inc.
  
 This software is provided under written license and may be
 used, copied, transmitted, or stored only in accord with that
 written license.
  
 The following legend is applicable only to US Government
 contracts under FAR:
  
                    RESTRICTED RIGHTS LEGEND
  
 Use, reproduction and disclosure by the US Government is
 subject to restrictions as set forth in subparagraphs (a)
 and (c) of the Commercial Computer Software - Restricted
 Rights clause in FAR 52.227-19.
  
 Gaussian, Inc.
 340 Quinnipiac St., Bldg. 40, Wallingford CT 06492
  
  
 ---------------------------------------------------------------
 Warning -- This program may not be used in any manner that
 competes with the business of Gaussian, Inc. or will provide
 assistance to any competitor of Gaussian, Inc.  The licensee
 of this program is prohibited from giving any competitor of
 Gaussian, Inc. access to this program.  By using this program,
 the user acknowledges that Gaussian, Inc. is engaged in the
 business of creating and licensing software in the field of
 computational chemistry and represents and warrants to the
 licensee that it is not a competitor of Gaussian, Inc. and that
 it will not use this program in any manner prohibited above.
 ---------------------------------------------------------------
  

 Cite this work as:
 Gaussian 16, Revision A.03,
 M. J. Frisch, G. W. Trucks, H. B. Schlegel, G. E. Scuseria, 
 M. A. Robb, J. R. Cheeseman, G. Scalmani, V. Barone, 
 G. A. Petersson, H. Nakatsuji, X. Li, M. Caricato, A. V. Marenich, 
 J. Bloino, B. G. Janesko, R. Gomperts, B. Mennucci, H. P. Hratchian, 
 J. V. Ortiz, A. F. Izmaylov, J. L. Sonnenberg, D. Williams-Young, 
 F. Ding, F. Lipparini, F. Egidi, J. Goings, B. Peng, A. Petrone, 
 T. Henderson, D. Ranasinghe, V. G. Zakrzewski, J. Gao, N. Rega, 
 G. Zheng, W. Liang, M. Hada, M. Ehara, K. Toyota, R. Fukuda, 
 J. Hasegawa, M. Ishida, T. Nakajima, Y. Honda, O. Kitao, H. Nakai, 
 T. Vreven, K. Throssell, J. A. Montgomery, Jr., J. E. Peralta, 
 F. Ogliaro, M. J. Bearpark, J. J. Heyd, E. N. Brothers, K. N. Kudin, 
 V. N. Staroverov, T. A. Keith, R. Kobayashi, J. Normand, 
 K. Raghavachari, A. P. Rendell, J. C. Burant, S. S. Iyengar, 
 J. Tomasi, M. Cossi, J. M. Millam, M. Klene, C. Adamo, R. Cammi, 
 J. W. Ochterski, R. L. Martin, K. Morokuma, O. Farkas, 
 J. B. Foresman, and D. J. Fox, Gaussian, Inc., Wallingford CT, 2016.
 
 ******************************************
 Gaussian 16:  ES64L-G16RevA.03 25-Dec-2016
                21-Apr-2022 
 ******************************************
 %Mem=192GB
 %NProcShared=48
 Will use up to   48 processors via shared memory.
 %Chk=1VI-4.chk
 ---------------------------------------------------------------------
 #n B3LYP/6-311++G(d,p) Opt freq EmpiricalDispersion=GD3BJ IOp(6/33=2)
 ---------------------------------------------------------------------
 1/18=20,19=15,26=3,38=1/1,3;
 2/9=110,12=2,17=6,18=5,40=1/2;
 3/5=4,6=6,7=1111,11=2,25=1,30=1,71=1,74=-5,124=41/1,2,3;
 4//1;
 5/5=2,38=5/2;
 6/7=2,8=2,9=2,10=2,28=1,33=2/1;
 7//1,2,3,16;
 1/18=20,19=15,26=3/3(2);
 2/9=110/2;
 99//99;
 2/9=110/2;
 3/5=4,6=6,7=1111,11=2,25=1,30=1,71=1,74=-5,124=41/1,2,3;
 4/5=5,16=3,69=1/1;
 5/5=2,38=5/2;
 7//1,2,3,16;
 1/18=20,19=15,26=3/3(-5);
 2/9=110/2;
 6/7=2,8=2,9=2,10=2,19=2,28=1,33=2/1;
 99/9=1/99;
 -----------
 1VI geo opt
 -----------
 Symbolic Z-matrix:
 Charge =  0 Multiplicity = 1
 H                     1.015    -0.1025   -1.7889 
 C                     2.096    -0.1241   -1.9023 
 H                     2.4928    0.2185   -2.8511 
 C                     2.8696   -0.5664   -0.901 
 H                     2.3953   -0.9005    0.0185 
 N                     4.2608   -0.6617   -0.8973 
 C                     5.1395   -0.5586    0.1623 
 H                     4.8027   -0.3982    1.1771 
 N                     6.3973   -0.6743   -0.2034 
 C                     6.3547   -0.8719   -1.5538 
 H                     7.2598   -0.9984   -2.1337 
 C                     5.0566   -0.8814   -2.0027 
 H                     4.6384   -1.012    -2.9903 
 

 GradGradGradGradGradGradGradGradGradGradGradGradGradGradGradGradGradGrad
 Berny optimization.
 Initialization pass.
                           ----------------------------
                           !    Initial Parameters    !
                           ! (Angstroms and Degrees)  !
 --------------------------                            --------------------------
 ! Name  Definition              Value          Derivative Info.                !
 --------------------------------------------------------------------------------
 ! R1    R(1,2)                  1.0871         estimate D2E/DX2                !
 ! R2    R(2,3)                  1.084          estimate D2E/DX2                !
 ! R3    R(2,4)                  1.3404         estimate D2E/DX2                !
 ! R4    R(4,5)                  1.0872         estimate D2E/DX2                !
 ! R5    R(4,6)                  1.3945         estimate D2E/DX2                !
 ! R6    R(6,7)                  1.3804         estimate D2E/DX2                !
 ! R7    R(6,12)                 1.3797         estimate D2E/DX2                !
 ! R8    R(7,8)                  1.0812         estimate D2E/DX2                !
 ! R9    R(7,9)                  1.315          estimate D2E/DX2                !
 ! R10   R(9,10)                 1.3654         estimate D2E/DX2                !
 ! R11   R(10,11)                1.0824         estimate D2E/DX2                !
 ! R12   R(10,12)                1.3736         estimate D2E/DX2                !
 ! R13   R(12,13)                1.0804         estimate D2E/DX2                !
 ! A1    A(1,2,3)              116.6798         estimate D2E/DX2                !
 ! A2    A(1,2,4)              120.1663         estimate D2E/DX2                !
 ! A3    A(3,2,4)              123.1526         estimate D2E/DX2                !
 ! A4    A(2,4,5)              118.7765         estimate D2E/DX2                !
 ! A5    A(2,4,6)              126.8928         estimate D2E/DX2                !
 ! A6    A(5,4,6)              114.3293         estimate D2E/DX2                !
 ! A7    A(4,6,7)              129.1977         estimate D2E/DX2                !
 ! A8    A(4,6,12)             125.7474         estimate D2E/DX2                !
 ! A9    A(7,6,12)             105.0544         estimate D2E/DX2                !
 ! A10   A(6,7,8)              122.2257         estimate D2E/DX2                !
 ! A11   A(6,7,9)              112.8817         estimate D2E/DX2                !
 ! A12   A(8,7,9)              124.8925         estimate D2E/DX2                !
 ! A13   A(7,9,10)             104.9472         estimate D2E/DX2                !
 ! A14   A(9,10,11)            121.379          estimate D2E/DX2                !
 ! A15   A(9,10,12)            110.7138         estimate D2E/DX2                !
 ! A16   A(11,10,12)           127.9072         estimate D2E/DX2                !
 ! A17   A(6,12,10)            106.3898         estimate D2E/DX2                !
 ! A18   A(6,12,13)            121.8948         estimate D2E/DX2                !
 ! A19   A(10,12,13)           131.7117         estimate D2E/DX2                !
 ! D1    D(1,2,4,5)              0.0342         estimate D2E/DX2                !
 ! D2    D(1,2,4,6)            179.5947         estimate D2E/DX2                !
 ! D3    D(3,2,4,5)           -179.5439         estimate D2E/DX2                !
 ! D4    D(3,2,4,6)              0.0167         estimate D2E/DX2                !
 ! D5    D(2,4,6,7)            149.9985         estimate D2E/DX2                !
 ! D6    D(2,4,6,12)           -29.7055         estimate D2E/DX2                !
 ! D7    D(5,4,6,7)            -30.4243         estimate D2E/DX2                !
 ! D8    D(5,4,6,12)           149.8718         estimate D2E/DX2                !
 ! D9    D(4,6,7,8)              1.2073         estimate D2E/DX2                !
 ! D10   D(4,6,7,9)           -178.7194         estimate D2E/DX2                !
 ! D11   D(12,6,7,8)          -179.0416         estimate D2E/DX2                !
 ! D12   D(12,6,7,9)             1.0318         estimate D2E/DX2                !
 ! D13   D(4,6,12,10)          178.6276         estimate D2E/DX2                !
 ! D14   D(4,6,12,13)           -0.7466         estimate D2E/DX2                !
 ! D15   D(7,6,12,10)           -1.1348         estimate D2E/DX2                !
 ! D16   D(7,6,12,13)          179.491          estimate D2E/DX2                !
 ! D17   D(6,7,9,10)            -0.469          estimate D2E/DX2                !
 ! D18   D(8,7,9,10)           179.6066         estimate D2E/DX2                !
 ! D19   D(7,9,10,11)          179.7798         estimate D2E/DX2                !
 ! D20   D(7,9,10,12)           -0.296          estimate D2E/DX2                !
 ! D21   D(9,10,12,6)            0.9241         estimate D2E/DX2                !
 ! D22   D(9,10,12,13)        -179.7876         estimate D2E/DX2                !
 ! D23   D(11,10,12,6)        -179.1579         estimate D2E/DX2                !
 ! D24   D(11,10,12,13)          0.1304         estimate D2E/DX2                !
 --------------------------------------------------------------------------------
 Trust Radius=3.00D-01 FncErr=1.00D-07 GrdErr=1.00D-06 EigMax=2.50D+02 EigMin=1.00D-04
 Number of steps in this run=     66 maximum allowed number of steps=    100.
 GradGradGradGradGradGradGradGradGradGradGradGradGradGradGradGradGradGrad

                          Input orientation:                          
 ---------------------------------------------------------------------
 Center     Atomic      Atomic             Coordinates (Angstroms)
 Number     Number       Type             X           Y           Z
 ---------------------------------------------------------------------
      1          1           0        1.015000   -0.102500   -1.788900
      2          6           0        2.096000   -0.124100   -1.902300
      3          1           0        2.492800    0.218500   -2.851100
      4          6           0        2.869600   -0.566400   -0.901000
      5          1           0        2.395300   -0.900500    0.018500
      6          7           0        4.260800   -0.661700   -0.897300
      7          6           0        5.139500   -0.558600    0.162300
      8          1           0        4.802700   -0.398200    1.177100
      9          7           0        6.397300   -0.674300   -0.203400
     10          6           0        6.354700   -0.871900   -1.553800
     11          1           0        7.259800   -0.998400   -2.133700
     12          6           0        5.056600   -0.881400   -2.002700
     13          1           0        4.638400   -1.012000   -2.990300
 ---------------------------------------------------------------------
                    Distance matrix (angstroms):
                    1          2          3          4          5
     1  H    0.000000
     2  C    1.087146   0.000000
     3  H    1.848027   1.083996   0.000000
     4  C    2.107869   1.340406   2.135635   0.000000
     5  H    2.410130   2.093287   3.081602   1.087227   0.000000
     6  N    3.412165   2.446507   2.778113   1.394465   2.091843
     7  C    4.585489   3.703276   4.085277   2.506614   2.769153
     8  H    4.819882   4.109022   4.684266   2.843179   2.718498
     9  N    5.640028   4.657270   4.801305   3.597632   4.014525
    10  C    5.399967   4.337878   4.217373   3.558848   4.260257
    11  H    6.318152   5.242402   4.971901   4.580396   5.320236
    12  C    4.121520   3.057570   2.915927   2.468995   3.341876
    13  H    3.924230   2.904463   2.477318   2.773515   3.754572
                    6          7          8          9         10
     6  N    0.000000
     7  C    1.380397   0.000000
     8  H    2.160144   1.081194   0.000000
     9  N    2.246394   1.314984   2.127148   0.000000
    10  C    2.204449   2.125998   3.176619   1.365445   0.000000
    11  H    3.261296   3.156060   4.166411   2.138926   1.082355
    12  C    1.379665   2.190502   3.226310   2.253408   1.373559
    13  H    2.155444   3.224215   4.215563   3.312791   2.242509
                   11         12         13
    11  H    0.000000
    12  C    2.210190   0.000000
    13  H    2.757841   1.080417   0.000000
 Stoichiometry    C5H6N2
 Framework group  C1[X(C5H6N2)]
 Deg. of freedom    33
 Full point group                 C1      NOp   1
 Largest Abelian subgroup         C1      NOp   1
 Largest concise Abelian subgroup C1      NOp   1
                         Standard orientation:                         
 ---------------------------------------------------------------------
 Center     Atomic      Atomic             Coordinates (Angstroms)
 Number     Number       Type             X           Y           Z
 ---------------------------------------------------------------------
      1          1           0       -3.619099    0.005245    0.085316
      2          6           0       -2.586489    0.322213    0.208344
      3          1           0       -2.426701    1.302375    0.642851
      4          6           0       -1.584900   -0.481063   -0.176694
      5          1           0       -1.826883   -1.447779   -0.611398
      6          7           0       -0.218674   -0.214946   -0.092177
      7          6           0        0.832697   -1.093888    0.073877
      8          1           0        0.685273   -2.162797    0.142297
      9          7           0        1.998917   -0.489752    0.138163
     10          6           0        1.715466    0.838746   -0.000368
     11          1           0        2.497544    1.586755    0.017760
     12          6           0        0.364748    1.033659   -0.156045
     13          1           0       -0.220967    1.931084   -0.293402
 ---------------------------------------------------------------------
 Rotational constants (GHZ):           8.2845780           2.0722883           1.6856562
 Standard basis: 6-311++G(d,p) (5D, 7F)
 There are   203 symmetry adapted cartesian basis functions of A   symmetry.
 There are   196 symmetry adapted basis functions of A   symmetry.
   196 basis functions,   306 primitive gaussians,   203 cartesian basis functions
    25 alpha electrons       25 beta electrons
       nuclear repulsion energy       274.8971573409 Hartrees.
 NAtoms=   13 NActive=   13 NUniq=   13 SFac= 1.00D+00 NAtFMM=   60 NAOKFM=F Big=F
 Integral buffers will be    131072 words long.
 Raffenetti 2 integral format.
 Two-electron integral symmetry is turned on.
 Nuclear repulsion after empirical dispersion term =      274.8778018113 Hartrees.
 One-electron integrals computed using PRISM.
 NBasis=   196 RedAO= T EigKep=  1.70D-05  NBF=   196
 NBsUse=   196 1.00D-06 EigRej= -1.00D+00 NBFU=   196
 ExpMin= 3.60D-02 ExpMax= 6.29D+03 ExpMxC= 9.49D+02 IAcc=3 IRadAn=         5 AccDes= 0.00D+00
 Harris functional with IExCor=  402 and IRadAn=       5 diagonalized for initial guess.
 HarFok:  IExCor=  402 AccDes= 0.00D+00 IRadAn=         5 IDoV= 1 UseB2=F ITyADJ=14
 ICtDFT=  3500011 ScaDFX=  1.000000  1.000000  1.000000  1.000000
 FoFCou: FMM=F IPFlag=           0 FMFlag=      100000 FMFlg1=           0
         NFxFlg=           0 DoJE=T BraDBF=F KetDBF=T FulRan=T
         wScrn=  0.000000 ICntrl=       500 IOpCl=  0 I1Cent=   200000004 NGrid=           0
         NMat0=    1 NMatS0=      1 NMatT0=    0 NMatD0=    1 NMtDS0=    0 NMtDT0=    0
 Petite list used in FoFCou.
 Requested convergence on RMS density matrix=1.00D-08 within 128 cycles.
 Requested convergence on MAX density matrix=1.00D-06.
 Requested convergence on             energy=1.00D-06.
 No special actions if energy rises.
 SCF Done:  E(RB3LYP) =  -303.711317787     A.U. after   13 cycles
            NFock= 13  Conv=0.76D-08     -V/T= 2.0044
 SCF density gives NOpUse=  1 NOpAll=  1.

 **********************************************************************

            Population analysis using the SCF density.

 **********************************************************************

 Orbital symmetries:
 BldTbl:  Degeneracy threshold= 1.00D-02
       Occupied  (A) (A) (A) (A) (A) (A) (A) (A) (A) (A) (A) (A)
                 (A) (A) (A) (A) (A) (A) (A) (A) (A) (A) (A) (A)
                 (A)
       Virtual   (A) (A) (A) (A) (A) (A) (A) (A) (A) (A) (A) (A)
                 (A) (A) (A) (A) (A) (A) (A) (A) (A) (A) (A) (A)
                 (A) (A) (A) (A) (A) (A) (A) (A) (A) (A) (A) (A)
                 (A) (A) (A) (A) (A) (A) (A) (A) (A) (A) (A) (A)
                 (A) (A) (A) (A) (A) (A) (A) (A) (A) (A) (A) (A)
                 (A) (A) (A) (A) (A) (A) (A) (A) (A) (A) (A) (A)
                 (A) (A) (A) (A) (A) (A) (A) (A) (A) (A) (A) (A)
                 (A) (A) (A) (A) (A) (A) (A) (A) (A) (A) (A) (A)
                 (A) (A) (A) (A) (A) (A) (A) (A) (A) (A) (A) (A)
                 (A) (A) (A) (A) (A) (A) (A) (A) (A) (A) (A) (A)
                 (A) (A) (A) (A) (A) (A) (A) (A) (A) (A) (A) (A)
                 (A) (A) (A) (A) (A) (A) (A) (A) (A) (A) (A) (A)
                 (A) (A) (A) (A) (A) (A) (A) (A) (A) (A) (A) (A)
                 (A) (A) (A) (A) (A) (A) (A) (A) (A) (A) (A) (A)
                 (A) (A) (A)
 The electronic state is 1-A.
 Alpha  occ. eigenvalues --  -14.39353 -14.30416 -10.24096 -10.23490 -10.20669
 Alpha  occ. eigenvalues --  -10.19281 -10.19243  -1.03821  -0.91227  -0.78590
 Alpha  occ. eigenvalues --   -0.75461  -0.65762  -0.61139  -0.58041  -0.54700
 Alpha  occ. eigenvalues --   -0.48371  -0.46295  -0.45248  -0.43837  -0.41986
 Alpha  occ. eigenvalues --   -0.40022  -0.33893  -0.28519  -0.26528  -0.24149
 Alpha virt. eigenvalues --   -0.04324  -0.01050   0.00136   0.01169   0.01372
 Alpha virt. eigenvalues --    0.02973   0.03640   0.03803   0.04774   0.05364
 Alpha virt. eigenvalues --    0.06496   0.07165   0.08542   0.08959   0.09897
 Alpha virt. eigenvalues --    0.10508   0.11456   0.11497   0.11974   0.12718
 Alpha virt. eigenvalues --    0.12969   0.13464   0.14098   0.14340   0.14683
 Alpha virt. eigenvalues --    0.15704   0.16151   0.17617   0.17742   0.19798
 Alpha virt. eigenvalues --    0.20945   0.22276   0.22771   0.23307   0.24045
 Alpha virt. eigenvalues --    0.24362   0.26177   0.26933   0.27531   0.28168
 Alpha virt. eigenvalues --    0.29539   0.30255   0.31424   0.32710   0.34309
 Alpha virt. eigenvalues --    0.35690   0.37229   0.41625   0.44084   0.46294
 Alpha virt. eigenvalues --    0.48289   0.51529   0.52590   0.53682   0.56157
 Alpha virt. eigenvalues --    0.57460   0.58126   0.59431   0.61807   0.63210
 Alpha virt. eigenvalues --    0.65289   0.66215   0.68089   0.70079   0.70385
 Alpha virt. eigenvalues --    0.71281   0.73553   0.76594   0.77958   0.79751
 Alpha virt. eigenvalues --    0.81439   0.84025   0.86485   0.89014   0.89748
 Alpha virt. eigenvalues --    0.91120   0.92388   0.95372   0.98438   1.00900
 Alpha virt. eigenvalues --    1.02886   1.04769   1.07080   1.08726   1.13906
 Alpha virt. eigenvalues --    1.16121   1.19036   1.24424   1.25148   1.30710
 Alpha virt. eigenvalues --    1.34254   1.41396   1.42961   1.49580   1.50785
 Alpha virt. eigenvalues --    1.54791   1.56979   1.62345   1.62732   1.63568
 Alpha virt. eigenvalues --    1.66617   1.69873   1.71537   1.72290   1.74156
 Alpha virt. eigenvalues --    1.75999   1.80486   1.83433   1.85429   1.86366
 Alpha virt. eigenvalues --    1.90317   1.98473   2.01702   2.04099   2.08519
 Alpha virt. eigenvalues --    2.10458   2.11357   2.17004   2.21774   2.23796
 Alpha virt. eigenvalues --    2.28322   2.32881   2.41697   2.42482   2.43701
 Alpha virt. eigenvalues --    2.50601   2.55107   2.56375   2.57506   2.58913
 Alpha virt. eigenvalues --    2.62109   2.65412   2.66699   2.73148   2.74393
 Alpha virt. eigenvalues --    2.75820   2.76395   2.78530   2.79641   2.81031
 Alpha virt. eigenvalues --    2.86794   2.89517   2.91783   2.96687   2.97692
 Alpha virt. eigenvalues --    3.13519   3.16070   3.30909   3.38539   3.45436
 Alpha virt. eigenvalues --    3.58771   3.59045   3.62767   3.70725   3.77554
 Alpha virt. eigenvalues --    3.82033   3.87506   3.93314   4.07244   4.10375
 Alpha virt. eigenvalues --    4.48392   4.75346   5.07357   5.25415  23.73549
 Alpha virt. eigenvalues --   23.80606  23.91148  24.14297  24.19976  35.50206
 Alpha virt. eigenvalues --   35.66659
          Condensed to atoms (all electrons):
               1          2          3          4          5          6
     1  H    0.522024   0.395165  -0.032404  -0.041629  -0.007943   0.019622
     2  C    0.395165   5.634258   0.382277   0.069404  -0.074185  -0.052814
     3  H   -0.032404   0.382277   0.545905   0.002260   0.008666  -0.025837
     4  C   -0.041629   0.069404   0.002260   5.555118   0.457703   0.183352
     5  H   -0.007943  -0.074185   0.008666   0.457703   0.530812  -0.072536
     6  N    0.019622  -0.052814  -0.025837   0.183352  -0.072536   6.766473
     7  C    0.002407  -0.008784  -0.008464  -0.123440  -0.007319   0.121517
     8  H    0.000434   0.003945  -0.000340  -0.007849  -0.002817  -0.107384
     9  N    0.000158   0.006380   0.000549   0.018236   0.001492   0.037141
    10  C   -0.001991   0.005974   0.002638  -0.010887  -0.005919  -0.138120
    11  H   -0.000011  -0.001706   0.000178   0.001893   0.000250   0.015557
    12  C    0.002712  -0.002533  -0.000519  -0.069430  -0.000013   0.230818
    13  H    0.000819  -0.021206  -0.005306   0.020862   0.000354  -0.103187
               7          8          9         10         11         12
     1  H    0.002407   0.000434   0.000158  -0.001991  -0.000011   0.002712
     2  C   -0.008784   0.003945   0.006380   0.005974  -0.001706  -0.002533
     3  H   -0.008464  -0.000340   0.000549   0.002638   0.000178  -0.000519
     4  C   -0.123440  -0.007849   0.018236  -0.010887   0.001893  -0.069430
     5  H   -0.007319  -0.002817   0.001492  -0.005919   0.000250  -0.000013
     6  N    0.121517  -0.107384   0.037141  -0.138120   0.015557   0.230818
     7  C    5.415094   0.449524   0.330065  -0.031402   0.026531  -0.123751
     8  H    0.449524   0.528873  -0.061366   0.016868  -0.000542   0.023608
     9  N    0.330065  -0.061366   6.589061   0.375798  -0.077417  -0.055969
    10  C   -0.031402   0.016868   0.375798   5.202393   0.464020   0.342493
    11  H    0.026531  -0.000542  -0.077417   0.464020   0.536906  -0.116582
    12  C   -0.123751   0.023608  -0.055969   0.342493  -0.116582   5.509315
    13  H    0.026102   0.001572   0.001385  -0.035146  -0.003491   0.450682
              13
     1  H    0.000819
     2  C   -0.021206
     3  H   -0.005306
     4  C    0.020862
     5  H    0.000354
     6  N   -0.103187
     7  C    0.026102
     8  H    0.001572
     9  N    0.001385
    10  C   -0.035146
    11  H   -0.003491
    12  C    0.450682
    13  H    0.541433
 Mulliken charges:
               1
     1  H    0.140637
     2  C   -0.336175
     3  H    0.130398
     4  C   -0.055592
     5  H    0.171458
     6  N    0.125398
     7  C   -0.068078
     8  H    0.155473
     9  N   -0.165512
    10  C   -0.186719
    11  H    0.154415
    12  C   -0.190830
    13  H    0.125127
 Sum of Mulliken charges =  -0.00000
 Mulliken charges with hydrogens summed into heavy atoms:
               1
     2  C   -0.065139
     4  C    0.115865
     6  N    0.125398
     7  C    0.087395
     9  N   -0.165512
    10  C   -0.032304
    12  C   -0.065703
 DipInt: DoE/N= T F RetVal/Mat= T F Init=T NMatP=  1 IDeriv=0 Min/MaxMlt=  0  4
 Entering OneElI...
 OneElI was handed 25769695761 working-precision words.
 Multipole integrals L=0 to 4 MinM= 0 MaxM= 0.
 Requested accuracy = 0.1000D-12
 ShPair: Thresh= 1.00D-13 NBox=     0 BxSize= 0.00D+00 RnKept= 1.19D+01
         NSMCal=                 2628 NSMKep=                2559
 PrmmSu-InSpLW:  IPartL=    0 NPrtUS=    1 NPrtUL=    1 DoSpLW=F IThBeg=    0 IThEnd=    0 NThAct=    1.
 PrsmSu:  NPrtUS=   1 ThrOK=F IAlg=1 NPAlg=1 LenDen=           0 ISkipM=0 DoSpLW=F IThBeg=    0 IThEnd=    0.
 Prism:   IPart=     0 DynPar=F LinDyn=F Incr=          25.
 PRISM was handed 25769515656 working-precision words and  2559 shell-pairs
 IPart=  0 NShTot=        2559 NBatch=          58 AvBLen=        44.1
 PrsmSu-ThDecC:  IPartSL=    0    0 NPrtUSL=    1    1 IThBeg=    0 IThEnd=    0 CPU=   -1 GPU=   -1 NThAct=    1.
 PrSmSu:  NxtVal=             26.
 Electronic moments (au):
        -50.00000000         -1.32846337          0.17960733         -0.14327967
       -516.20384495       -157.58281159        -39.60502800          2.55412120
         -0.23460822          0.81163372        565.34427305        -12.36023216
         -0.47945850       -108.18971465        -85.57966492        -87.70797686
         16.30224163         -2.75070608          5.50836555         45.52428147
     -11207.29124777      -1389.99364032       -167.02978358        271.22981396
        225.19517102        -29.62296030         24.11201413          5.13266094
         -1.84033312      -1264.27852524       -465.10037548       -161.05678270
        -97.26104401        -12.08772031          5.58333232
 Electronic spatial extent (au):  <R**2>=            713.3917
 DipInt: DoE/N= F T RetVal/Mat= T F Init=T NMatP=  1 IDeriv=0 Min/MaxMlt=  0  4
 Nuclear    moments (au):
         50.00000000         -0.00000000         -0.00000000         -0.00000000
        482.84837605        130.49359587          6.14475959          0.00000000
          0.00000000          0.00000000       -605.50298362          8.15159210
          0.19658448        106.32320463        100.41218605         85.94316652
        -15.87429012          1.01752961         -6.47726065        -48.94519607
       9304.46610627        874.95282345          4.36560657       -171.39152761
       -237.91687210         31.86537750        -22.55802990         -3.54423116
          7.92202703        863.35220044         83.96265412         28.07447049
        121.31993118         14.05610525         -7.14164076
 Total      moments (au):
         -0.00000000         -1.32846337          0.17960733         -0.14327967
        -33.35546890        -27.08921572        -33.46026841          2.55412120
         -0.23460822          0.81163372        -40.15871057         -4.20864006
         -0.28287402         -1.86651002         14.83252112         -1.76481034
          0.42795151         -1.73317648         -0.96889510         -3.42091461
      -1902.82514150       -515.04081688       -162.66417701         99.83828635
        -12.72170108          2.24241720          1.55398423          1.58842978
          6.08169392       -400.92632479       -381.13772136       -132.98231220
         24.05888716          1.96838494         -1.55830843
 Traceless Quadrup. (au):
         -2.05381789          4.21243529         -2.15861740          2.55412120
         -0.23460822          0.81163372
 Charge=             -0.0000 electrons
 Dipole moment (field-independent basis, Debye):
    X=             -3.3766    Y=              0.4565    Z=             -0.3642  Tot=              3.4267
 Quadrupole moment (field-independent basis, Debye-Ang):
   XX=            -44.8642   YY=            -36.4359   ZZ=            -45.0052
   XY=              3.4354   XZ=             -0.3156   YZ=              1.0917
 Traceless Quadrupole moment (field-independent basis, Debye-Ang):
   XX=             -2.7625   YY=              5.6659   ZZ=             -2.9034
   XY=              3.4354   XZ=             -0.3156   YZ=              1.0917
 Octapole moment (field-independent basis, Debye-Ang**2):
  XXX=            -28.5834  YYY=             -2.9955  ZZZ=             -0.2013  XYY=             -1.3285
  XXY=             10.5572  XXZ=             -1.2561  XZZ=              0.3046  YZZ=             -1.2336
  YYZ=             -0.6896  XYZ=             -2.4349
 Hexadecapole moment (field-independent basis, Debye-Ang**3):
 XXXX=           -716.6952 YYYY=           -193.9891 ZZZZ=            -61.2671 XXXY=             37.6039
 XXXZ=             -4.7916 YYYX=              0.8446 YYYZ=              0.5853 ZZZX=              0.5983
 ZZZY=              2.2907 XXYY=           -151.0081 XXZZ=           -143.5547 YYZZ=            -50.0875
 XXYZ=              9.0617 YYXZ=              0.7414 ZZXY=             -0.5869
 N-N= 2.748778018113D+02 E-N=-1.255538560957D+03  KE= 3.023878214909D+02
 Entering OneElI...
 OneElI was handed 25769718726 working-precision words.
 Calculate electrostatic properties
    NBasis =   196  MinDer = 0  MaxDer = 0
    NGrid  =    13  NMatD  =   1
 Requested accuracy = 0.1000D-12
 ShPair: Thresh= 1.00D-13 NBox=     0 BxSize= 0.00D+00 RnKept= 1.19D+01
         NSMCal=                 2628 NSMKep=                2482
 PrmmSu-InSpLW:  IPartL=    0 NPrtUS=   48 NPrtUL=    1 DoSpLW=F IThBeg=    0 IThEnd=   47 NThAct=   48.
 PrsmSu:  NPrtUS=  48 ThrOK=T IAlg=1 NPAlg=1 LenDen=           0 ISkipM=0 DoSpLW=F IThBeg=    0 IThEnd=   47.
 Prism:   IPart=     0 DynPar=F LinDyn=F Incr=           6.
 PRISM was handed   536810627 working-precision words and  2482 shell-pairs
 PRISM was handed   536810627 working-precision words and  2482 shell-pairs
 PRISM was handed   536810627 working-precision words and  2482 shell-pairs
 PRISM was handed   536810627 working-precision words and  2482 shell-pairs
 PRISM was handed   536810627 working-precision words and  2482 shell-pairs
 PRISM was handed   536810627 working-precision words and  2482 shell-pairs
 PRISM was handed   536810627 working-precision words and  2482 shell-pairs
 PRISM was handed   536810627 working-precision words and  2482 shell-pairs
 PRISM was handed   536810627 working-precision words and  2482 shell-pairs
 PRISM was handed   536810627 working-precision words and  2482 shell-pairs
 PRISM was handed   536810627 working-precision words and  2482 shell-pairs
 PRISM was handed   536810627 working-precision words and  2482 shell-pairs
 PRISM was handed   536810627 working-precision words and  2482 shell-pairs
 IPart= 17 NShTot=         676 NBatch=          52 AvBLen=        13.0
 PrsmSu-ThDecC:  IPartSL=   17    0 NPrtUSL=   48    1 IThBeg=    0 IThEnd=   47 CPU=   -1 GPU=   -1 NThAct=   48.
 IPart= 16 NShTot=         676 NBatch=          52 AvBLen=        13.0
 PrsmSu-ThDecC:  IPartSL=   16    0 NPrtUSL=   48    1 IThBeg=    0 IThEnd=   47 CPU=   -1 GPU=   -1 NThAct=   47.
 IPart= 11 NShTot=         728 NBatch=          56 AvBLen=        13.0
 PrsmSu-ThDecC:  IPartSL=   11    0 NPrtUSL=   48    1 IThBeg=    0 IThEnd=   47 CPU=   -1 GPU=   -1 NThAct=   46.
 IPart= 28 NShTot=         598 NBatch=          46 AvBLen=        13.0
 PrsmSu-ThDecC:  IPartSL=   28    0 NPrtUSL=   48    1 IThBeg=    0 IThEnd=   47 CPU=   -1 GPU=   -1 NThAct=   45.
 IPart= 18 NShTot=         676 NBatch=          52 AvBLen=        13.0
 PrsmSu-ThDecC:  IPartSL=   18    0 NPrtUSL=   48    1 IThBeg=    0 IThEnd=   47 CPU=   -1 GPU=   -1 NThAct=   44.
 IPart=  0 NShTot=        1105 NBatch=          85 AvBLen=        13.0
 PrsmSu-ThDecC:  IPartSL=    0    0 NPrtUSL=   48    1 IThBeg=    0 IThEnd=   47 CPU=   -1 GPU=   -1 NThAct=   43.
 PRISM was handed   536810627 working-precision words and  2482 shell-pairs
 PRISM was handed   536810627 working-precision words and  2482 shell-pairs
 PRISM was handed   536810627 working-precision words and  2482 shell-pairs
 PRISM was handed   536810627 working-precision words and  2482 shell-pairs
 IPart= 37 NShTot=         572 NBatch=          44 AvBLen=        13.0
 PrsmSu-ThDecC:  IPartSL=   37    0 NPrtUSL=   48    1 IThBeg=    0 IThEnd=   47 CPU=   -1 GPU=   -1 NThAct=   42.
 PRISM was handed   536810627 working-precision words and  2482 shell-pairs
 PRISM was handed   536810627 working-precision words and  2482 shell-pairs
 PRISM was handed   536810627 working-precision words and  2482 shell-pairs
 PRISM was handed   536810627 working-precision words and  2482 shell-pairs
 PRISM was handed   536810627 working-precision words and  2482 shell-pairs
 PRISM was handed   536810627 working-precision words and  2482 shell-pairs
 IPart=  5 NShTot=         871 NBatch=          67 AvBLen=        13.0
 PrsmSu-ThDecC:  IPartSL=    5    0 NPrtUSL=   48    1 IThBeg=    0 IThEnd=   47 CPU=   -1 GPU=   -1 NThAct=   41.
 PRISM was handed   536810627 working-precision words and  2482 shell-pairs
 PRISM was handed   536810627 working-precision words and  2482 shell-pairs
 PRISM was handed   536810627 working-precision words and  2482 shell-pairs
 PRISM was handed   536810627 working-precision words and  2482 shell-pairs
 PRISM was handed   536810627 working-precision words and  2482 shell-pairs
 PRISM was handed   536810627 working-precision words and  2482 shell-pairs
 PRISM was handed   536810627 working-precision words and  2482 shell-pairs
 PRISM was handed   536810627 working-precision words and  2482 shell-pairs
 PRISM was handed   536810627 working-precision words and  2482 shell-pairs
 PRISM was handed   536810627 working-precision words and  2482 shell-pairs
 PRISM was handed   536810627 working-precision words and  2482 shell-pairs
 PRISM was handed   536810627 working-precision words and  2482 shell-pairs
 PRISM was handed   536810627 working-precision words and  2482 shell-pairs
 PRISM was handed   536810627 working-precision words and  2482 shell-pairs
 PRISM was handed   536810627 working-precision words and  2482 shell-pairs
 PRISM was handed   536810627 working-precision words and  2482 shell-pairs
 PRISM was handed   536810627 working-precision words and  2482 shell-pairs
 PRISM was handed   536810627 working-precision words and  2482 shell-pairs
 PRISM was handed   536810627 working-precision words and  2482 shell-pairs
 PRISM was handed   536810627 working-precision words and  2482 shell-pairs
 PRISM was handed   536810627 working-precision words and  2482 shell-pairs
 PRISM was handed   536810627 working-precision words and  2482 shell-pairs
 PRISM was handed   536810627 working-precision words and  2482 shell-pairs
 PRISM was handed   536810627 working-precision words and  2482 shell-pairs
 PRISM was handed   536810627 working-precision words and  2482 shell-pairs
 IPart= 19 NShTot=         663 NBatch=          51 AvBLen=        13.0
 PrsmSu-ThDecC:  IPartSL=   19    0 NPrtUSL=   48    1 IThBeg=    0 IThEnd=   47 CPU=   -1 GPU=   -1 NThAct=   40.
 IPart= 13 NShTot=         715 NBatch=          55 AvBLen=        13.0
 PrsmSu-ThDecC:  IPartSL=   13    0 NPrtUSL=   48    1 IThBeg=    0 IThEnd=   47 CPU=   -1 GPU=   -1 NThAct=   39.
 IPart= 44 NShTot=         494 NBatch=          38 AvBLen=        13.0
 PrsmSu-ThDecC:  IPartSL=   44    0 NPrtUSL=   48    1 IThBeg=    0 IThEnd=   47 CPU=   -1 GPU=   -1 NThAct=   38.
 IPart= 38 NShTot=         559 NBatch=          43 AvBLen=        13.0
 PrsmSu-ThDecC:  IPartSL=   38    0 NPrtUSL=   48    1 IThBeg=    0 IThEnd=   47 CPU=   -1 GPU=   -1 NThAct=   37.
 IPart= 35 NShTot=         585 NBatch=          45 AvBLen=        13.0
 PrsmSu-ThDecC:  IPartSL=   35    0 NPrtUSL=   48    1 IThBeg=    0 IThEnd=   47 CPU=   -1 GPU=   -1 NThAct=   36.
 IPart=  4 NShTot=         897 NBatch=          69 AvBLen=        13.0
 PrsmSu-ThDecC:  IPartSL=    4    0 NPrtUSL=   48    1 IThBeg=    0 IThEnd=   47 CPU=   -1 GPU=   -1 NThAct=   35.
 IPart= 45 NShTot=         494 NBatch=          38 AvBLen=        13.0
 PrsmSu-ThDecC:  IPartSL=   45    0 NPrtUSL=   48    1 IThBeg=    0 IThEnd=   47 CPU=   -1 GPU=   -1 NThAct=   34.
 IPart= 46 NShTot=         494 NBatch=          38 AvBLen=        13.0
 PrsmSu-ThDecC:  IPartSL=   46    0 NPrtUSL=   48    1 IThBeg=    0 IThEnd=   47 CPU=   -1 GPU=   -1 NThAct=   33.
 IPart= 20 NShTot=         650 NBatch=          50 AvBLen=        13.0
 PrsmSu-ThDecC:  IPartSL=   20    0 NPrtUSL=   48    1 IThBeg=    0 IThEnd=   47 CPU=   -1 GPU=   -1 NThAct=   32.
 IPart= 47 NShTot=         494 NBatch=          38 AvBLen=        13.0
 PrsmSu-ThDecC:  IPartSL=   47    0 NPrtUSL=   48    1 IThBeg=    0 IThEnd=   47 CPU=   -1 GPU=   -1 NThAct=   31.
 IPart= 23 NShTot=         650 NBatch=          50 AvBLen=        13.0
 PrsmSu-ThDecC:  IPartSL=   23    0 NPrtUSL=   48    1 IThBeg=    0 IThEnd=   47 CPU=   -1 GPU=   -1 NThAct=   30.
 IPart= 43 NShTot=         520 NBatch=          40 AvBLen=        13.0
 PrsmSu-ThDecC:  IPartSL=   43    0 NPrtUSL=   48    1 IThBeg=    0 IThEnd=   47 CPU=   -1 GPU=   -1 NThAct=   29.
 IPart= 41 NShTot=         533 NBatch=          41 AvBLen=        13.0
 PrsmSu-ThDecC:  IPartSL=   41    0 NPrtUSL=   48    1 IThBeg=    0 IThEnd=   47 CPU=   -1 GPU=   -1 NThAct=   28.
 IPart= 40 NShTot=         546 NBatch=          42 AvBLen=        13.0
 PrsmSu-ThDecC:  IPartSL=   40    0 NPrtUSL=   48    1 IThBeg=    0 IThEnd=   47 CPU=   -1 GPU=   -1 NThAct=   27.
 IPart=  7 NShTot=         767 NBatch=          59 AvBLen=        13.0
 PrsmSu-ThDecC:  IPartSL=    7    0 NPrtUSL=   48    1 IThBeg=    0 IThEnd=   47 CPU=   -1 GPU=   -1 NThAct=   26.
 IPart=  8 NShTot=         754 NBatch=          58 AvBLen=        13.0
 PrsmSu-ThDecC:  IPartSL=    8    0 NPrtUSL=   48    1 IThBeg=    0 IThEnd=   47 CPU=   -1 GPU=   -1 NThAct=   25.
 IPart=  9 NShTot=         754 NBatch=          58 AvBLen=        13.0
 PrsmSu-ThDecC:  IPartSL=    9    0 NPrtUSL=   48    1 IThBeg=    0 IThEnd=   47 CPU=   -1 GPU=   -1 NThAct=   24.
 IPart= 24 NShTot=         650 NBatch=          50 AvBLen=        13.0
 PrsmSu-ThDecC:  IPartSL=   24    0 NPrtUSL=   48    1 IThBeg=    0 IThEnd=   47 CPU=   -1 GPU=   -1 NThAct=   23.
 IPart= 30 NShTot=         585 NBatch=          45 AvBLen=        13.0
 PrsmSu-ThDecC:  IPartSL=   30    0 NPrtUSL=   48    1 IThBeg=    0 IThEnd=   47 CPU=   -1 GPU=   -1 NThAct=   22.
 IPart=  6 NShTot=         832 NBatch=          64 AvBLen=        13.0
 IPart= 31 NShTot=         585 NBatch=          45 AvBLen=        13.0
 PrsmSu-ThDecC:  IPartSL=    6    0 NPrtUSL=   48    1 IThBeg=    0 IThEnd=   47 CPU=   -1 GPU=   -1 NThAct=   21.
 PrsmSu-ThDecC:  IPartSL=   31    0 NPrtUSL=   48    1 IThBeg=    0 IThEnd=   47 CPU=   -1 GPU=   -1 NThAct=   20.
 IPart= 42 NShTot=         533 NBatch=          41 AvBLen=        13.0
 PrsmSu-ThDecC:  IPartSL=   42    0 NPrtUSL=   48    1 IThBeg=    0 IThEnd=   47 CPU=   -1 GPU=   -1 NThAct=   19.
 IPart= 15 NShTot=         715 NBatch=          55 AvBLen=        13.0
 PrsmSu-ThDecC:  IPartSL=   15    0 NPrtUSL=   48    1 IThBeg=    0 IThEnd=   47 CPU=   -1 GPU=   -1 NThAct=   18.
 IPart= 29 NShTot=         598 NBatch=          46 AvBLen=        13.0
 PrsmSu-ThDecC:  IPartSL=   29    0 NPrtUSL=   48    1 IThBeg=    0 IThEnd=   47 CPU=   -1 GPU=   -1 NThAct=   17.
 IPart= 12 NShTot=         715 NBatch=          55 AvBLen=        13.0
 PrsmSu-ThDecC:  IPartSL=   12    0 NPrtUSL=   48    1 IThBeg=    0 IThEnd=   47 CPU=   -1 GPU=   -1 NThAct=   16.
 IPart= 32 NShTot=         585 NBatch=          45 AvBLen=        13.0
 IPart= 33 NShTot=         585 NBatch=          45 AvBLen=        13.0
 PrsmSu-ThDecC:  IPartSL=   32    0 NPrtUSL=   48    1 IThBeg=    0 IThEnd=   47 CPU=   -1 GPU=   -1 NThAct=   15.
 PrsmSu-ThDecC:  IPartSL=   33    0 NPrtUSL=   48    1 IThBeg=    0 IThEnd=   47 CPU=   -1 GPU=   -1 NThAct=   14.
 IPart= 34 NShTot=         585 NBatch=          45 AvBLen=        13.0
 IPart=  1 NShTot=        1092 NBatch=          84 AvBLen=        13.0
 PrsmSu-ThDecC:  IPartSL=   34    0 NPrtUSL=   48    1 IThBeg=    0 IThEnd=   47 CPU=   -1 GPU=   -1 NThAct=   13.
 PrsmSu-ThDecC:  IPartSL=    1    0 NPrtUSL=   48    1 IThBeg=    0 IThEnd=   47 CPU=   -1 GPU=   -1 NThAct=   12.
 IPart= 26 NShTot=         637 NBatch=          49 AvBLen=        13.0
 PrsmSu-ThDecC:  IPartSL=   26    0 NPrtUSL=   48    1 IThBeg=    0 IThEnd=   47 CPU=   -1 GPU=   -1 NThAct=   11.
 IPart= 21 NShTot=         650 NBatch=          50 AvBLen=        13.0
 PrsmSu-ThDecC:  IPartSL=   21    0 NPrtUSL=   48    1 IThBeg=    0 IThEnd=   47 CPU=   -1 GPU=   -1 NThAct=   10.
 IPart= 39 NShTot=         559 NBatch=          43 AvBLen=        13.0
 PrsmSu-ThDecC:  IPartSL=   39    0 NPrtUSL=   48    1 IThBeg=    0 IThEnd=   47 CPU=   -1 GPU=   -1 NThAct=    9.
 IPart=  3 NShTot=         936 NBatch=          72 AvBLen=        13.0
 PrsmSu-ThDecC:  IPartSL=    3    0 NPrtUSL=   48    1 IThBeg=    0 IThEnd=   47 CPU=   -1 GPU=   -1 NThAct=    8.
 IPart= 10 NShTot=         728 NBatch=          56 AvBLen=        13.0
 PrsmSu-ThDecC:  IPartSL=   10    0 NPrtUSL=   48    1 IThBeg=    0 IThEnd=   47 CPU=   -1 GPU=   -1 NThAct=    7.
 IPart= 27 NShTot=         624 NBatch=          48 AvBLen=        13.0
 IPart= 25 NShTot=         637 NBatch=          49 AvBLen=        13.0
 PrsmSu-ThDecC:  IPartSL=   27    0 NPrtUSL=   48    1 IThBeg=    0 IThEnd=   47 CPU=   -1 GPU=   -1 NThAct=    6.
 PrsmSu-ThDecC:  IPartSL=   25    0 NPrtUSL=   48    1 IThBeg=    0 IThEnd=   47 CPU=   -1 GPU=   -1 NThAct=    5.
 IPart=  2 NShTot=        1014 NBatch=          78 AvBLen=        13.0
 PrsmSu-ThDecC:  IPartSL=    2    0 NPrtUSL=   48    1 IThBeg=    0 IThEnd=   47 CPU=   -1 GPU=   -1 NThAct=    4.
 IPart= 22 NShTot=         650 NBatch=          50 AvBLen=        13.0
 IPart= 36 NShTot=         585 NBatch=          45 AvBLen=        13.0
 PrsmSu-ThDecC:  IPartSL=   22    0 NPrtUSL=   48    1 IThBeg=    0 IThEnd=   47 CPU=   -1 GPU=   -1 NThAct=    3.
 IPart= 14 NShTot=         715 NBatch=          55 AvBLen=        13.0
 PrsmSu-ThDecC:  IPartSL=   36    0 NPrtUSL=   48    1 IThBeg=    0 IThEnd=   47 CPU=   -1 GPU=   -1 NThAct=    2.
 PrsmSu-ThDecC:  IPartSL=   14    0 NPrtUSL=   48    1 IThBeg=    0 IThEnd=   47 CPU=   -1 GPU=   -1 NThAct=    1.
 PrSmSu:  NxtVal=            289.
 --------------------------------------------------------
       Center         ----      EFG at Nuclei      ----
                      3XX-RR        3YY-RR        3ZZ-RR
 --------------------------------------------------------
     1   Atom       -0.268903      0.110307      0.158597
     2   Atom        0.128606      0.066466     -0.195072
     3   Atom        0.139203     -0.230582      0.091379
     4   Atom       -0.089348      0.202113     -0.112765
     5   Atom        0.115555     -0.211446      0.095891
     6   Atom       -0.332893     -0.194114      0.527007
     7   Atom       -0.057507      0.121146     -0.063638
     8   Atom        0.134407     -0.310260      0.175853
     9   Atom        0.670431     -0.169461     -0.500970
    10   Atom        0.160314     -0.001015     -0.159299
    11   Atom       -0.094726     -0.078579      0.173305
    12   Atom        0.159473     -0.138436     -0.021036
    13   Atom        0.006169     -0.179067      0.172898
 --------------------------------------------------------
                        XY            XZ            YZ
 --------------------------------------------------------
     1   Atom       -0.128773     -0.049731     -0.024345
     2   Atom       -0.030652      0.005314      0.128639
     3   Atom       -0.064498     -0.026259     -0.177985
     4   Atom       -0.143810     -0.070421      0.152284
     5   Atom       -0.087222     -0.039054     -0.168854
     6   Atom       -0.033690     -0.068506      0.099860
     7   Atom        0.187300     -0.010588      0.003229
     8   Atom       -0.067358      0.000737      0.031104
     9   Atom       -0.485278      0.158413     -0.071811
    10   Atom        0.068074      0.021621     -0.006432
    11   Atom       -0.235617     -0.007756     -0.002625
    12   Atom       -0.173044      0.040307     -0.005209
    13   Atom        0.211511     -0.034665      0.053289
 --------------------------------------------------------


 ---------------------------------------------------------------------------------
              Nuclear Quadrupole Coupling Constant in Principal Axis System
 ---------------------------------------------------------------------------------

       Atom             a.u.   MegaHertz   Gauss  10(-4) cm-1        Axes

              Baa    -0.3431     1.648     0.588     0.550  0.9813  0.1842  0.0561
     6 N(14)  Bbb    -0.2034     0.977     0.349     0.326 -0.1742  0.9733 -0.1494
              Bcc     0.5465    -2.625    -0.937    -0.876 -0.0821  0.1368  0.9872
 
              Baa    -0.5224     2.509     0.895     0.837 -0.1127  0.0470  0.9925
     9 N(14)  Bbb    -0.3913     1.879     0.671     0.627  0.4152  0.9097  0.0041
              Bcc     0.9136    -4.388    -1.566    -1.464  0.9027 -0.4126  0.1220
 

 ---------------------------------------------------------------------------------

 No NMR shielding tensors so no spin-rotation constants.
 Leave Link  601 at Thu Apr 21 16:35:10 2022, MaxMem= 25769803776 cpu:              13.5 elap:               0.3
 Calling FoFJK, ICntrl=      2127 FMM=F ISym2X=0 I1Cent= 0 IOpClX= 0 NMat=1 NMatS=1 NMatT=0.
 ***** Axes restored to original set *****
 -------------------------------------------------------------------
 Center     Atomic                   Forces (Hartrees/Bohr)
 Number     Number              X              Y              Z
 -------------------------------------------------------------------
      1        1           0.004212696   -0.001878080    0.001009973
      2        6           0.006157695   -0.003091262    0.002813063
      3        1           0.001163049    0.000416572    0.001244267
      4        6          -0.021006312    0.004290833    0.003895435
      5        1           0.003293611    0.002133136    0.000851715
      6        7           0.013935799   -0.004472754   -0.005679855
      7        6          -0.001295563    0.000727672    0.012420504
      8        1          -0.001512805    0.000310337   -0.001726870
      9        7          -0.010147279    0.001902207    0.007782937
     10        6          -0.000844770   -0.002125636   -0.013612689
     11        1          -0.002477985   -0.000691648    0.000756085
     12        6           0.007734130    0.002745867   -0.012842604
     13        1           0.000787735   -0.000267243    0.003088040
 -------------------------------------------------------------------
 Cartesian Forces:  Max     0.021006312 RMS     0.006379957

 GradGradGradGradGradGradGradGradGradGradGradGradGradGradGradGradGradGrad
 Berny optimization.
 FormGI is forming the generalized inverse of G from B-inverse, IUseBI=4.
 Internal  Forces:  Max     0.013089174 RMS     0.004329450
 Search for a local minimum.
 Step number   1 out of a maximum of   66
 All quantities printed in internal units (Hartrees-Bohrs-Radians)
 Mixed Optimization -- RFO/linear search
 Second derivative matrix not updated -- first step.
 ITU=  0
     Eigenvalues ---    0.01765   0.01898   0.02077   0.02184   0.02260
     Eigenvalues ---    0.02343   0.02352   0.02424   0.02877   0.02877
     Eigenvalues ---    0.15998   0.16000   0.16000   0.16000   0.16000
     Eigenvalues ---    0.16000   0.22000   0.22670   0.23409   0.25000
     Eigenvalues ---    0.35135   0.35145   0.35516   0.35711   0.35850
     Eigenvalues ---    0.35944   0.43412   0.45758   0.46550   0.49644
     Eigenvalues ---    0.50948   0.57114   0.60566
 RFO step:  Lambda=-3.90646905D-03 EMin= 1.76499506D-02
 Linear search not attempted -- first point.
 Iteration  1 RMS(Cart)=  0.03951723 RMS(Int)=  0.00080041
 Iteration  2 RMS(Cart)=  0.00118137 RMS(Int)=  0.00020865
 Iteration  3 RMS(Cart)=  0.00000094 RMS(Int)=  0.00020864
 Variable       Old X    -DE/DX   Delta X   Delta X   Delta X     New X
                                 (Linear)    (Quad)   (Total)
    R1        2.05441  -0.00412   0.00000  -0.01160  -0.01160   2.04281
    R2        2.04845  -0.00053   0.00000  -0.00148  -0.00148   2.04697
    R3        2.53300  -0.01194   0.00000  -0.02077  -0.02077   2.51223
    R4        2.05456  -0.00137   0.00000  -0.00386  -0.00386   2.05070
    R5        2.63516   0.00627   0.00000   0.01335   0.01335   2.64851
    R6        2.60857  -0.00203   0.00000  -0.00477  -0.00478   2.60379
    R7        2.60719   0.00861   0.00000   0.01754   0.01756   2.62475
    R8        2.04316  -0.00110   0.00000  -0.00304  -0.00304   2.04012
    R9        2.48496  -0.00527   0.00000  -0.00874  -0.00877   2.47619
   R10        2.58032   0.01309   0.00000   0.02534   0.02533   2.60565
   R11        2.04535  -0.00240   0.00000  -0.00664  -0.00664   2.03872
   R12        2.59565  -0.00601   0.00000  -0.01113  -0.01111   2.58454
   R13        2.04169  -0.00310   0.00000  -0.00852  -0.00852   2.03317
    A1        2.03645   0.00233   0.00000   0.01420   0.01419   2.05064
    A2        2.09730  -0.00179   0.00000  -0.01094  -0.01095   2.08635
    A3        2.14942  -0.00054   0.00000  -0.00330  -0.00331   2.14611
    A4        2.07304   0.00645   0.00000   0.03356   0.03355   2.10659
    A5        2.21470  -0.00708   0.00000  -0.03161  -0.03161   2.18309
    A6        1.99542   0.00063   0.00000  -0.00197  -0.00198   1.99345
    A7        2.25492  -0.01289   0.00000  -0.05104  -0.05108   2.20385
    A8        2.19471   0.00489   0.00000   0.01900   0.01893   2.21364
    A9        1.83355   0.00800   0.00000   0.03195   0.03179   1.86534
   A10        2.13324   0.00133   0.00000   0.00303   0.00308   2.13632
   A11        1.97016  -0.00671   0.00000  -0.03076  -0.03087   1.93929
   A12        2.17979   0.00538   0.00000   0.02774   0.02779   2.20758
   A13        1.83167   0.00538   0.00000   0.02242   0.02225   1.85392
   A14        2.11846   0.00177   0.00000   0.00745   0.00748   2.12594
   A15        1.93232  -0.00191   0.00000  -0.00500  -0.00506   1.92726
   A16        2.23240   0.00014   0.00000  -0.00246  -0.00243   2.22997
   A17        1.85685  -0.00475   0.00000  -0.01777  -0.01808   1.83877
   A18        2.12747   0.00197   0.00000   0.00659   0.00633   2.13379
   A19        2.29880   0.00279   0.00000   0.01166   0.01137   2.31017
    D1        0.00060  -0.00094   0.00000  -0.02874  -0.02872  -0.02812
    D2        3.13452  -0.00108   0.00000  -0.03335  -0.03337   3.10114
    D3       -3.13363  -0.00070   0.00000  -0.02139  -0.02137   3.12818
    D4        0.00029  -0.00084   0.00000  -0.02601  -0.02603  -0.02574
    D5        2.61797   0.00126   0.00000   0.05868   0.05873   2.67670
    D6       -0.51846   0.00188   0.00000   0.08631   0.08620  -0.43226
    D7       -0.53100   0.00115   0.00000   0.05438   0.05449  -0.47652
    D8        2.61576   0.00177   0.00000   0.08201   0.08195   2.69771
    D9        0.02107  -0.00011   0.00000  -0.00261  -0.00287   0.01820
   D10       -3.11924  -0.00020   0.00000  -0.00525  -0.00554  -3.12478
   D11       -3.12486  -0.00062   0.00000  -0.02581  -0.02582   3.13250
   D12        0.01801  -0.00071   0.00000  -0.02845  -0.02849  -0.01048
   D13        3.11764   0.00033   0.00000   0.01451   0.01396   3.13160
   D14       -0.01303  -0.00070   0.00000  -0.02552  -0.02571  -0.03874
   D15       -0.01981   0.00088   0.00000   0.03689   0.03730   0.01750
   D16        3.13271  -0.00015   0.00000  -0.00314  -0.00237   3.13034
   D17       -0.00819   0.00019   0.00000   0.00725   0.00706  -0.00113
   D18        3.13473   0.00009   0.00000   0.00455   0.00428   3.13901
   D19        3.13775   0.00053   0.00000   0.02151   0.02196  -3.12348
   D20       -0.00517   0.00044   0.00000   0.01769   0.01792   0.01276
   D21        0.01613  -0.00097   0.00000  -0.03546  -0.03499  -0.01886
   D22       -3.13789   0.00019   0.00000   0.00999   0.01034  -3.12755
   D23       -3.12689  -0.00107   0.00000  -0.03959  -0.03932   3.11697
   D24        0.00228   0.00009   0.00000   0.00586   0.00601   0.00829
         Item               Value     Threshold  Converged?
 Maximum Force            0.013089     0.000450     NO 
 RMS     Force            0.004329     0.000300     NO 
 Maximum Displacement     0.111038     0.001800     NO 
 RMS     Displacement     0.039843     0.001200     NO 
 Predicted change in Energy=-2.035846D-03
 GradGradGradGradGradGradGradGradGradGradGradGradGradGradGradGradGradGrad

                          Input orientation:                          
 ---------------------------------------------------------------------
 Center     Atomic      Atomic             Coordinates (Angstroms)
 Number     Number       Type             X           Y           Z
 ---------------------------------------------------------------------
      1          1           0        1.036617   -0.131280   -1.783295
      2          6           0        2.111839   -0.145520   -1.894088
      3          1           0        2.520388    0.164677   -2.848139
      4          6           0        2.869921   -0.550624   -0.879915
      5          1           0        2.422139   -0.841741    0.064736
      6          7           0        4.266887   -0.659116   -0.911564
      7          6           0        5.116324   -0.567382    0.169437
      8          1           0        4.757311   -0.413215    1.175838
      9          7           0        6.366942   -0.692735   -0.201027
     10          6           0        6.347470   -0.874454   -1.567713
     11          1           0        7.253381   -1.022003   -2.134683
     12          6           0        5.062544   -0.842632   -2.035156
     13          1           0        4.646736   -0.955476   -3.021031
 ---------------------------------------------------------------------
                    Distance matrix (angstroms):
                    1          2          3          4          5
     1  H    0.000000
     2  C    1.081010   0.000000
     3  H    1.850152   1.083212   0.000000
     4  C    2.086373   1.329415   2.123143   0.000000
     5  H    2.416537   2.101904   3.083403   1.085184   0.000000
     6  N    3.387207   2.423502   2.734816   1.401530   2.095139
     7  C    4.543937   3.669200   4.047290   2.479465   2.710141
     8  H    4.762303   4.061358   4.640062   2.794144   2.621299
     9  N    5.588485   4.612135   4.747455   3.565142   3.956551
    10  C    5.366931   4.310270   4.167234   3.559674   4.251374
    11  H    6.290073   5.221260   4.931374   4.583815   5.311387
    12  C    4.096041   3.035214   2.852748   2.495485   3.373616
    13  H    3.904389   2.889936   2.409562   2.811646   3.805749
                    6          7          8          9         10
     6  N    0.000000
     7  C    1.377868   0.000000
     8  H    2.158293   1.079583   0.000000
     9  N    2.217256   1.310344   2.136539   0.000000
    10  C    2.192197   2.151210   3.204437   1.378851   0.000000
    11  H    3.247592   3.175321   4.190529   2.152491   1.078842
    12  C    1.388959   2.222360   3.253928   2.255648   1.367680
    13  H    2.163785   3.248110   4.233200   3.313693   2.238569
                   11         12         13
    11  H    0.000000
    12  C    2.200419   0.000000
    13  H    2.754022   1.075909   0.000000
 Stoichiometry    C5H6N2
 Framework group  C1[X(C5H6N2)]
 Deg. of freedom    33
 Full point group                 C1      NOp   1
 Largest Abelian subgroup         C1      NOp   1
 Largest concise Abelian subgroup C1      NOp   1
                         Standard orientation:                         
 ---------------------------------------------------------------------
 Center     Atomic      Atomic             Coordinates (Angstroms)
 Number     Number       Type             X           Y           Z
 ---------------------------------------------------------------------
      1          1           0       -3.589393    0.026972    0.055423
      2          6           0       -2.560970    0.334362    0.183644
      3          1           0       -2.381250    1.326101    0.580511
      4          6           0       -1.581081   -0.495807   -0.159838
      5          1           0       -1.803089   -1.486731   -0.542469
      6          7           0       -0.212858   -0.200992   -0.086784
      7          6           0        0.809756   -1.110836    0.071218
      8          1           0        0.633109   -2.173720    0.138848
      9          7           0        1.972883   -0.509533    0.121924
     10          6           0        1.715399    0.838856   -0.007616
     11          1           0        2.507846    1.570885   -0.015533
     12          6           0        0.370486    1.059013   -0.122896
     13          1           0       -0.208941    1.956638   -0.249841
 ---------------------------------------------------------------------
 Rotational constants (GHZ):           8.1158610           2.1130125           1.6988238
 Standard basis: 6-311++G(d,p) (5D, 7F)
 There are   203 symmetry adapted cartesian basis functions of A   symmetry.
 There are   196 symmetry adapted basis functions of A   symmetry.
   196 basis functions,   306 primitive gaussians,   203 cartesian basis functions
    25 alpha electrons       25 beta electrons
       nuclear repulsion energy       275.2865436420 Hartrees.
 NAtoms=   13 NActive=   13 NUniq=   13 SFac= 1.00D+00 NAtFMM=   60 NAOKFM=F Big=F
 Integral buffers will be    131072 words long.
 Raffenetti 2 integral format.
 Two-electron integral symmetry is turned on.
 Nuclear repulsion after empirical dispersion term =      275.2669530020 Hartrees.
 One-electron integrals computed using PRISM.
 NBasis=   196 RedAO= T EigKep=  1.48D-05  NBF=   196
 NBsUse=   196 1.00D-06 EigRej= -1.00D+00 NBFU=   196
 Initial guess from the checkpoint file:  "1VI-4.chk"
 B after Tr=    -0.000000   -0.000000    0.000000
         Rot=    0.999996    0.000100    0.000077    0.002847 Ang=   0.33 deg.
 ExpMin= 3.60D-02 ExpMax= 6.29D+03 ExpMxC= 9.49D+02 IAcc=3 IRadAn=         5 AccDes= 0.00D+00
 Harris functional with IExCor=  402 and IRadAn=       5 diagonalized for initial guess.
 HarFok:  IExCor=  402 AccDes= 0.00D+00 IRadAn=         5 IDoV= 1 UseB2=F ITyADJ=14
 ICtDFT=  3500011 ScaDFX=  1.000000  1.000000  1.000000  1.000000
 FoFCou: FMM=F IPFlag=           0 FMFlag=      100000 FMFlg1=           0
         NFxFlg=           0 DoJE=T BraDBF=F KetDBF=T FulRan=T
         wScrn=  0.000000 ICntrl=       500 IOpCl=  0 I1Cent=   200000004 NGrid=           0
         NMat0=    1 NMatS0=      1 NMatT0=    0 NMatD0=    1 NMtDS0=    0 NMtDT0=    0
 Petite list used in FoFCou.
 Requested convergence on RMS density matrix=1.00D-08 within 128 cycles.
 Requested convergence on MAX density matrix=1.00D-06.
 Requested convergence on             energy=1.00D-06.
 No special actions if energy rises.
 SCF Done:  E(RB3LYP) =  -303.713189494     A.U. after   11 cycles
            NFock= 11  Conv=0.67D-08     -V/T= 2.0043
 Calling FoFJK, ICntrl=      2127 FMM=F ISym2X=0 I1Cent= 0 IOpClX= 0 NMat=1 NMatS=1 NMatT=0.
 ***** Axes restored to original set *****
 -------------------------------------------------------------------
 Center     Atomic                   Forces (Hartrees/Bohr)
 Number     Number              X              Y              Z
 -------------------------------------------------------------------
      1        1          -0.000280318    0.000198743   -0.000026786
      2        6          -0.001276423   -0.000857035   -0.002116162
      3        1           0.000272421   -0.000024637    0.000695999
      4        6          -0.004495585    0.001229663    0.002236422
      5        1           0.001994832    0.001134910    0.000490939
      6        7          -0.001712992    0.000398512   -0.003246957
      7        6           0.003091892   -0.003599188   -0.006577125
      8        1          -0.000409414    0.000008491   -0.000627355
      9        7           0.003348043   -0.000064075    0.004423237
     10        6          -0.001530596    0.001881518   -0.000020173
     11        1           0.000160637    0.000296805    0.000829480
     12        6           0.001403220   -0.000002424    0.003206264
     13        1          -0.000565719   -0.000601284    0.000732215
 -------------------------------------------------------------------
 Cartesian Forces:  Max     0.006577125 RMS     0.002091819

 GradGradGradGradGradGradGradGradGradGradGradGradGradGradGradGradGradGrad
 Berny optimization.
 Using GEDIIS/GDIIS optimizer.
 FormGI is forming the generalized inverse of G from B-inverse, IUseBI=4.
 Internal  Forces:  Max     0.005505725 RMS     0.001691934
 Search for a local minimum.
 Step number   2 out of a maximum of   66
 All quantities printed in internal units (Hartrees-Bohrs-Radians)
 Mixed Optimization -- RFO/linear search
 Update second derivatives using D2CorX and points    1    2
 DE= -1.87D-03 DEPred=-2.04D-03 R= 9.19D-01
 TightC=F SS=  1.41D+00  RLast= 2.06D-01 DXNew= 5.0454D-01 6.1851D-01
 Trust test= 9.19D-01 RLast= 2.06D-01 DXMaxT set to 5.05D-01
 ITU=  1  0
 Use linear search instead of GDIIS.
     Eigenvalues ---    0.01513   0.01900   0.02137   0.02228   0.02278
     Eigenvalues ---    0.02354   0.02381   0.02438   0.02871   0.02903
     Eigenvalues ---    0.14957   0.15988   0.16000   0.16000   0.16000
     Eigenvalues ---    0.16089   0.21172   0.22540   0.23211   0.31107
     Eigenvalues ---    0.35069   0.35354   0.35516   0.35703   0.35829
     Eigenvalues ---    0.35947   0.43244   0.45503   0.45871   0.49885
     Eigenvalues ---    0.53040   0.59290   0.60360
 RFO step:  Lambda=-1.00970820D-03 EMin= 1.51252083D-02
 Quartic linear search produced a step of -0.04222.
 Iteration  1 RMS(Cart)=  0.03857882 RMS(Int)=  0.00085684
 Iteration  2 RMS(Cart)=  0.00133607 RMS(Int)=  0.00007904
 Iteration  3 RMS(Cart)=  0.00000094 RMS(Int)=  0.00007904
 Variable       Old X    -DE/DX   Delta X   Delta X   Delta X     New X
                                 (Linear)    (Quad)   (Total)
    R1        2.04281   0.00028   0.00049  -0.00260  -0.00211   2.04070
    R2        2.04697  -0.00052   0.00006  -0.00181  -0.00175   2.04523
    R3        2.51223   0.00163   0.00088  -0.00330  -0.00242   2.50981
    R4        2.05070  -0.00070   0.00016  -0.00301  -0.00285   2.04785
    R5        2.64851   0.00393  -0.00056   0.01189   0.01132   2.65983
    R6        2.60379   0.00000   0.00020  -0.00174  -0.00153   2.60226
    R7        2.62475  -0.00229  -0.00074   0.00062  -0.00018   2.62458
    R8        2.04012  -0.00045   0.00013  -0.00207  -0.00194   2.03818
    R9        2.47619  -0.00090   0.00037  -0.00405  -0.00362   2.47258
   R10        2.60565  -0.00053  -0.00107   0.00659   0.00555   2.61120
   R11        2.03872  -0.00034   0.00028  -0.00283  -0.00255   2.03617
   R12        2.58454   0.00141   0.00047  -0.00022   0.00021   2.58475
   R13        2.03317  -0.00039   0.00036  -0.00349  -0.00313   2.03004
    A1        2.05064   0.00026  -0.00060   0.00565   0.00504   2.05568
    A2        2.08635   0.00050   0.00046  -0.00018   0.00027   2.08662
    A3        2.14611  -0.00075   0.00014  -0.00536  -0.00523   2.14088
    A4        2.10659   0.00135  -0.00142   0.01842   0.01700   2.12360
    A5        2.18309   0.00091   0.00133  -0.00523  -0.00389   2.17919
    A6        1.99345  -0.00225   0.00008  -0.01317  -0.01308   1.98036
    A7        2.20385  -0.00125   0.00216  -0.01878  -0.01655   2.18729
    A8        2.21364   0.00494  -0.00080   0.02495   0.02424   2.23788
    A9        1.86534  -0.00368  -0.00134  -0.00604  -0.00754   1.85780
   A10        2.13632  -0.00336  -0.00013  -0.01367  -0.01383   2.12249
   A11        1.93929   0.00551   0.00130   0.01301   0.01419   1.95348
   A12        2.20758  -0.00214  -0.00117   0.00069  -0.00053   2.20705
   A13        1.85392  -0.00446  -0.00094  -0.01140  -0.01237   1.84155
   A14        2.12594  -0.00152  -0.00032  -0.00593  -0.00629   2.11965
   A15        1.92726   0.00138   0.00021   0.00488   0.00489   1.93215
   A16        2.22997   0.00013   0.00010   0.00092   0.00098   2.23096
   A17        1.83877   0.00128   0.00076   0.00027   0.00083   1.83960
   A18        2.13379  -0.00138  -0.00027  -0.00514  -0.00531   2.12848
   A19        2.31017   0.00012  -0.00048   0.00515   0.00476   2.31493
    D1       -0.02812   0.00010   0.00121  -0.00558  -0.00438  -0.03250
    D2        3.10114   0.00019   0.00141  -0.00300  -0.00158   3.09956
    D3        3.12818  -0.00024   0.00090  -0.01419  -0.01329   3.11489
    D4       -0.02574  -0.00014   0.00110  -0.01161  -0.01050  -0.03624
    D5        2.67670   0.00125  -0.00248   0.08118   0.07870   2.75540
    D6       -0.43226   0.00097  -0.00364   0.07529   0.07167  -0.36059
    D7       -0.47652   0.00136  -0.00230   0.08380   0.08148  -0.39504
    D8        2.69771   0.00108  -0.00346   0.07791   0.07445   2.77216
    D9        0.01820  -0.00006   0.00012   0.00065   0.00091   0.01911
   D10       -3.12478   0.00041   0.00023   0.02033   0.02074  -3.10405
   D11        3.13250   0.00031   0.00109   0.00614   0.00724   3.13973
   D12       -0.01048   0.00077   0.00120   0.02581   0.02706   0.01657
   D13        3.13160  -0.00084  -0.00059  -0.02986  -0.03023   3.10137
   D14       -0.03874  -0.00034   0.00109  -0.02074  -0.01954  -0.05829
   D15        0.01750  -0.00108  -0.00158  -0.03449  -0.03594  -0.01844
   D16        3.13034  -0.00058   0.00010  -0.02537  -0.02525   3.10509
   D17       -0.00113  -0.00014  -0.00030  -0.00580  -0.00617  -0.00730
   D18        3.13901   0.00035  -0.00018   0.01485   0.01481  -3.12937
   D19       -3.12348  -0.00005  -0.00093   0.00686   0.00590  -3.11757
   D20        0.01276  -0.00056  -0.00076  -0.01703  -0.01781  -0.00505
   D21       -0.01886   0.00097   0.00148   0.03216   0.03374   0.01488
   D22       -3.12755   0.00042  -0.00044   0.02198   0.02166  -3.10589
   D23        3.11697   0.00041   0.00166   0.00646   0.00810   3.12507
   D24        0.00829  -0.00014  -0.00025  -0.00372  -0.00398   0.00431
         Item               Value     Threshold  Converged?
 Maximum Force            0.005506     0.000450     NO 
 RMS     Force            0.001692     0.000300     NO 
 Maximum Displacement     0.165507     0.001800     NO 
 RMS     Displacement     0.038722     0.001200     NO 
 Predicted change in Energy=-5.253067D-04
 GradGradGradGradGradGradGradGradGradGradGradGradGradGradGradGradGradGrad

                          Input orientation:                          
 ---------------------------------------------------------------------
 Center     Atomic      Atomic             Coordinates (Angstroms)
 Number     Number       Type             X           Y           Z
 ---------------------------------------------------------------------
      1          1           0        1.028350   -0.122239   -1.772352
      2          6           0        2.100368   -0.160396   -1.896818
      3          1           0        2.505095    0.097700   -2.866832
      4          6           0        2.866156   -0.522549   -0.873904
      5          1           0        2.445699   -0.754159    0.097657
      6          7           0        4.266332   -0.656728   -0.925116
      7          6           0        5.111524   -0.603414    0.160746
      8          1           0        4.736626   -0.466389    1.162725
      9          7           0        6.366814   -0.714443   -0.191263
     10          6           0        6.354058   -0.856498   -1.565673
     11          1           0        7.264904   -0.990915   -2.125391
     12          6           0        5.072048   -0.836466   -2.042015
     13          1           0        4.660525   -0.945004   -3.028364
 ---------------------------------------------------------------------
                    Distance matrix (angstroms):
                    1          2          3          4          5
     1  H    0.000000
     2  C    1.079893   0.000000
     3  H    1.851225   1.082287   0.000000
     4  C    2.084464   1.328134   2.118216   0.000000
     5  H    2.430048   2.109440   3.085026   1.083677   0.000000
     6  N    3.389397   2.425273   2.727889   1.407522   2.090517
     7  C    4.543204   3.673812   4.056015   2.473603   2.670829
     8  H    4.741775   4.050221   4.640610   2.765803   2.542740
     9  N    5.599084   4.628007   4.767716   3.571754   3.931945
    10  C    5.380057   4.322973   4.173491   3.571488   4.248812
    11  H    6.306650   5.235881   4.938684   4.597235   5.312507
    12  C    4.115134   3.051072   2.853461   2.515747   3.388610
    13  H    3.930293   2.906960   2.399834   2.835476   3.835868
                    6          7          8          9         10
     6  N    0.000000
     7  C    1.377058   0.000000
     8  H    2.148601   1.078558   0.000000
     9  N    2.225735   1.308431   2.133619   0.000000
    10  C    2.192902   2.142070   3.195689   1.381790   0.000000
    11  H    3.247118   3.164431   4.180793   2.150315   1.077494
    12  C    1.388865   2.215407   3.243428   2.261988   1.367791
    13  H    2.159200   3.238905   4.219016   3.318693   2.239499
                   11         12         13
    11  H    0.000000
    12  C    2.199869   0.000000
    13  H    2.756856   1.074251   0.000000
 Stoichiometry    C5H6N2
 Framework group  C1[X(C5H6N2)]
 Deg. of freedom    33
 Full point group                 C1      NOp   1
 Largest Abelian subgroup         C1      NOp   1
 Largest concise Abelian subgroup C1      NOp   1
                         Standard orientation:                         
 ---------------------------------------------------------------------
 Center     Atomic      Atomic             Coordinates (Angstroms)
 Number     Number       Type             X           Y           Z
 ---------------------------------------------------------------------
      1          1           0       -3.596071    0.017275    0.057069
      2          6           0       -2.570398    0.338753    0.161062
      3          1           0       -2.390851    1.351554    0.497728
      4          6           0       -1.586743   -0.505015   -0.129487
      5          1           0       -1.784529   -1.523637   -0.441972
      6          7           0       -0.215814   -0.189931   -0.080556
      7          6           0        0.806847   -1.102974    0.049085
      8          1           0        0.614598   -2.162680    0.106971
      9          7           0        1.976859   -0.520560    0.111189
     10          6           0        1.721480    0.833604    0.009380
     11          1           0        2.519369    1.557735    0.010061
     12          6           0        0.379658    1.064124   -0.121869
     13          1           0       -0.194901    1.962245   -0.253312
 ---------------------------------------------------------------------
 Rotational constants (GHZ):           8.1559331           2.1051498           1.6900836
 Standard basis: 6-311++G(d,p) (5D, 7F)
 There are   203 symmetry adapted cartesian basis functions of A   symmetry.
 There are   196 symmetry adapted basis functions of A   symmetry.
   196 basis functions,   306 primitive gaussians,   203 cartesian basis functions
    25 alpha electrons       25 beta electrons
       nuclear repulsion energy       275.1319890439 Hartrees.
 NAtoms=   13 NActive=   13 NUniq=   13 SFac= 1.00D+00 NAtFMM=   60 NAOKFM=F Big=F
 Integral buffers will be    131072 words long.
 Raffenetti 2 integral format.
 Two-electron integral symmetry is turned on.
 Nuclear repulsion after empirical dispersion term =      275.1124470179 Hartrees.
 One-electron integrals computed using PRISM.
 NBasis=   196 RedAO= T EigKep=  1.37D-05  NBF=   196
 NBsUse=   196 1.00D-06 EigRej= -1.00D+00 NBFU=   196
 Initial guess from the checkpoint file:  "1VI-4.chk"
 B after Tr=     0.000000    0.000000    0.000000
         Rot=    0.999999    0.000707    0.000209    0.000823 Ang=   0.13 deg.
 ExpMin= 3.60D-02 ExpMax= 6.29D+03 ExpMxC= 9.49D+02 IAcc=3 IRadAn=         5 AccDes= 0.00D+00
 Harris functional with IExCor=  402 and IRadAn=       5 diagonalized for initial guess.
 HarFok:  IExCor=  402 AccDes= 0.00D+00 IRadAn=         5 IDoV= 1 UseB2=F ITyADJ=14
 ICtDFT=  3500011 ScaDFX=  1.000000  1.000000  1.000000  1.000000
 FoFCou: FMM=F IPFlag=           0 FMFlag=      100000 FMFlg1=           0
         NFxFlg=           0 DoJE=T BraDBF=F KetDBF=T FulRan=T
         wScrn=  0.000000 ICntrl=       500 IOpCl=  0 I1Cent=   200000004 NGrid=           0
         NMat0=    1 NMatS0=      1 NMatT0=    0 NMatD0=    1 NMtDS0=    0 NMtDT0=    0
 Petite list used in FoFCou.
 Requested convergence on RMS density matrix=1.00D-08 within 128 cycles.
 Requested convergence on MAX density matrix=1.00D-06.
 Requested convergence on             energy=1.00D-06.
 No special actions if energy rises.
 SCF Done:  E(RB3LYP) =  -303.713786359     A.U. after   11 cycles
            NFock= 11  Conv=0.26D-08     -V/T= 2.0043
 Calling FoFJK, ICntrl=      2127 FMM=F ISym2X=0 I1Cent= 0 IOpClX= 0 NMat=1 NMatS=1 NMatT=0.
 ***** Axes restored to original set *****
 -------------------------------------------------------------------
 Center     Atomic                   Forces (Hartrees/Bohr)
 Number     Number              X              Y              Z
 -------------------------------------------------------------------
      1        1          -0.000964749    0.000586420   -0.000146022
      2        6          -0.001492835   -0.000403476   -0.001570807
      3        1          -0.000032387   -0.000276175   -0.000075086
      4        6           0.002798633   -0.000560129    0.000441943
      5        1           0.000594728    0.000657705    0.000416221
      6        7          -0.002510069   -0.002192044   -0.000252864
      7        6           0.000511463    0.000315237   -0.001998644
      8        1          -0.000092486   -0.000013817    0.000680288
      9        7           0.001129620    0.000202084   -0.000009543
     10        6          -0.000549607   -0.001788337    0.000574622
     11        1           0.000704876    0.000048915   -0.000134262
     12        6           0.000089005    0.003399980    0.002942169
     13        1          -0.000186191    0.000023637   -0.000868016
 -------------------------------------------------------------------
 Cartesian Forces:  Max     0.003399980 RMS     0.001221733

 GradGradGradGradGradGradGradGradGradGradGradGradGradGradGradGradGradGrad
 Berny optimization.
 Using GEDIIS/GDIIS optimizer.
 FormGI is forming the generalized inverse of G from B-inverse, IUseBI=4.
 Internal  Forces:  Max     0.002790736 RMS     0.000763260
 Search for a local minimum.
 Step number   3 out of a maximum of   66
 All quantities printed in internal units (Hartrees-Bohrs-Radians)
 Mixed Optimization -- En-DIIS/RFO-DIIS
 Update second derivatives using D2CorX and points    1    2    3
 DE= -5.97D-04 DEPred=-5.25D-04 R= 1.14D+00
 TightC=F SS=  1.41D+00  RLast= 1.81D-01 DXNew= 8.4853D-01 5.4401D-01
 Trust test= 1.14D+00 RLast= 1.81D-01 DXMaxT set to 5.44D-01
 ITU=  1  1  0
 Use linear search instead of GDIIS.
     Eigenvalues ---    0.00777   0.01899   0.02193   0.02260   0.02327
     Eigenvalues ---    0.02364   0.02389   0.02844   0.02894   0.03419
     Eigenvalues ---    0.14995   0.15994   0.15998   0.16000   0.16060
     Eigenvalues ---    0.16164   0.22374   0.22701   0.23436   0.29992
     Eigenvalues ---    0.35112   0.35352   0.35514   0.35761   0.35898
     Eigenvalues ---    0.36451   0.43459   0.45789   0.47307   0.49856
     Eigenvalues ---    0.52947   0.59948   0.61681
 RFO step:  Lambda=-6.04957984D-04 EMin= 7.77081923D-03
 Quartic linear search produced a step of  0.20774.
 Iteration  1 RMS(Cart)=  0.05703051 RMS(Int)=  0.00169230
 Iteration  2 RMS(Cart)=  0.00222182 RMS(Int)=  0.00010040
 Iteration  3 RMS(Cart)=  0.00000216 RMS(Int)=  0.00010040
 Iteration  4 RMS(Cart)=  0.00000000 RMS(Int)=  0.00010040
 Variable       Old X    -DE/DX   Delta X   Delta X   Delta X     New X
                                 (Linear)    (Quad)   (Total)
    R1        2.04070   0.00096  -0.00044   0.00082   0.00038   2.04108
    R2        2.04523  -0.00001  -0.00036  -0.00093  -0.00129   2.04393
    R3        2.50981   0.00279  -0.00050   0.00198   0.00148   2.51129
    R4        2.04785   0.00000  -0.00059  -0.00165  -0.00224   2.04561
    R5        2.65983  -0.00093   0.00235   0.00393   0.00628   2.66611
    R6        2.60226   0.00037  -0.00032  -0.00031  -0.00063   2.60163
    R7        2.62458  -0.00130  -0.00004  -0.00085  -0.00091   2.62366
    R8        2.03818   0.00066  -0.00040   0.00101   0.00061   2.03879
    R9        2.47258   0.00047  -0.00075  -0.00168  -0.00240   2.47018
   R10        2.61120  -0.00085   0.00115   0.00376   0.00493   2.61613
   R11        2.03617   0.00066  -0.00053   0.00027  -0.00026   2.03591
   R12        2.58475   0.00039   0.00004  -0.00063  -0.00061   2.58414
   R13        2.03004   0.00087  -0.00065   0.00045  -0.00020   2.02984
    A1        2.05568  -0.00028   0.00105   0.00185   0.00288   2.05855
    A2        2.08662   0.00055   0.00006   0.00267   0.00271   2.08933
    A3        2.14088  -0.00027  -0.00109  -0.00448  -0.00558   2.13529
    A4        2.12360  -0.00017   0.00353   0.01155   0.01507   2.13867
    A5        2.17919   0.00149  -0.00081   0.00217   0.00135   2.18054
    A6        1.98036  -0.00132  -0.00272  -0.01366  -0.01639   1.96398
    A7        2.18729   0.00037  -0.00344  -0.01193  -0.01538   2.17191
    A8        2.23788   0.00084   0.00503   0.01604   0.02103   2.25890
    A9        1.85780  -0.00121  -0.00157  -0.00460  -0.00638   1.85142
   A10        2.12249  -0.00037  -0.00287  -0.00671  -0.00958   2.11291
   A11        1.95348   0.00106   0.00295   0.00733   0.01017   1.96365
   A12        2.20705  -0.00068  -0.00011  -0.00034  -0.00045   2.20660
   A13        1.84155  -0.00082  -0.00257  -0.00553  -0.00818   1.83337
   A14        2.11965  -0.00024  -0.00131  -0.00286  -0.00417   2.11548
   A15        1.93215  -0.00004   0.00102   0.00087   0.00173   1.93388
   A16        2.23096   0.00030   0.00020   0.00258   0.00278   2.23373
   A17        1.83960   0.00103   0.00017   0.00282   0.00270   1.84230
   A18        2.12848  -0.00036  -0.00110  -0.00288  -0.00406   2.12442
   A19        2.31493  -0.00068   0.00099  -0.00054   0.00038   2.31531
    D1       -0.03250   0.00032  -0.00091   0.00691   0.00597  -0.02653
    D2        3.09956   0.00048  -0.00033   0.01505   0.01475   3.11431
    D3        3.11489   0.00017  -0.00276  -0.00179  -0.00459   3.11030
    D4       -0.03624   0.00033  -0.00218   0.00635   0.00420  -0.03204
    D5        2.75540   0.00062   0.01635   0.08116   0.09752   2.85292
    D6       -0.36059   0.00112   0.01489   0.11058   0.12553  -0.23506
    D7       -0.39504   0.00077   0.01693   0.08882   0.10568  -0.28936
    D8        2.77216   0.00127   0.01547   0.11824   0.13369   2.90585
    D9        0.01911   0.00012   0.00019   0.00641   0.00634   0.02545
   D10       -3.10405  -0.00030   0.00431  -0.00903  -0.00506  -3.10911
   D11        3.13973  -0.00027   0.00150  -0.01740  -0.01578   3.12396
   D12        0.01657  -0.00068   0.00562  -0.03284  -0.02718  -0.01061
[...]
 9044 Fit      -0.055026
 9045 Fit      -0.050573
 9046 Fit      -0.045020
 9047 Fit      -0.039183
 9048 Fit      -0.033638
 9049 Fit      -0.035196
 9050 Fit      -0.041307
 9051 Fit      -0.047838
 9052 Fit      -0.054141
 9053 Fit      -0.059259
 9054 Fit      -0.062164
 9055 Fit      -0.062171
 9056 Fit      -0.059278
 9057 Fit      -0.054168
 9058 Fit      -0.047869
 9059 Fit      -0.041339
 9060 Fit      -0.035226
 9061 Fit      -0.029971
 9062 Fit      -0.035414
 9063 Fit      -0.041627
 9064 Fit      -0.048296
 9065 Fit      -0.054757
 9066 Fit      -0.060019
 9067 Fit      -0.063010
 9068 Fit      -0.063018
 9069 Fit      -0.060038
 9070 Fit      -0.054786
 9071 Fit      -0.048329
 9072 Fit      -0.041660
 9073 Fit      -0.035446
 9074 Fit      -0.029999
 9075 Fit      -0.029022
 9076 Fit      -0.034103
 9077 Fit      -0.039850
 9078 Fit      -0.045958
 9079 Fit      -0.051818
 9080 Fit      -0.056548
 9081 Fit      -0.059222
 9082 Fit      -0.059229
 9083 Fit      -0.056567
 9084 Fit      -0.051845
 9085 Fit      -0.045989
 9086 Fit      -0.039882
 9087 Fit      -0.034134
 9088 Fit      -0.029049
 9089 Fit      -0.027053
 9090 Fit      -0.031386
 9091 Fit      -0.036154
 9092 Fit      -0.041076
 9093 Fit      -0.045661
 9094 Fit      -0.049268
 9095 Fit      -0.051270
 9096 Fit      -0.051276
 9097 Fit      -0.049285
 9098 Fit      -0.045686
 9099 Fit      -0.041105
 9100 Fit      -0.036184
 9101 Fit      -0.031415
 9102 Fit      -0.027079
 9103 Fit      -0.027636
 9104 Fit      -0.031108
 9105 Fit      -0.034475
 9106 Fit      -0.037410
 9107 Fit      -0.039578
 9108 Fit      -0.040725
 9109 Fit      -0.040730
 9110 Fit      -0.039592
 9111 Fit      -0.037431
 9112 Fit      -0.034500
 9113 Fit      -0.031134
 9114 Fit      -0.027662
 9115 Fit      -0.021098
 9116 Fit      -0.023342
 9117 Fit      -0.025435
 9118 Fit      -0.027178
 9119 Fit      -0.028412
 9120 Fit      -0.029109
 9121 Fit      -0.029388
 9122 Fit      -0.029392
 9123 Fit      -0.029121
 9124 Fit      -0.028430
 9125 Fit      -0.027200
 9126 Fit      -0.025458
 9127 Fit      -0.023365
 9128 Fit      -0.021119
 9129 Fit      -0.017741
 9130 Fit      -0.018954
 9131 Fit      -0.019768
 9132 Fit      -0.020022
 9133 Fit      -0.019697
 9134 Fit      -0.019028
 9135 Fit      -0.018489
 9136 Fit      -0.018493
 9137 Fit      -0.019039
 9138 Fit      -0.019712
 9139 Fit      -0.020041
 9140 Fit      -0.019788
 9141 Fit      -0.018974
 9142 Fit      -0.017760
 9143 Fit      -0.013759
 9144 Fit      -0.014478
 9145 Fit      -0.014799
 9146 Fit      -0.014525
 9147 Fit      -0.013508
 9148 Fit      -0.011809
 9149 Fit      -0.009875
 9150 Fit      -0.008538
 9151 Fit      -0.008542
 9152 Fit      -0.009885
 9153 Fit      -0.011824
 9154 Fit      -0.013525
 9155 Fit      -0.014543
 9156 Fit      -0.014817
 9157 Fit      -0.014496
 9158 Fit      -0.013775
 9159 Fit      -0.011343
 9160 Fit      -0.011475
 9161 Fit      -0.011082
 9162 Fit      -0.009951
 9163 Fit      -0.007925
 9164 Fit      -0.005085
 9165 Fit      -0.002029
 9166 Fit       0.000055
 9167 Fit       0.000050
 9168 Fit      -0.002040
 9169 Fit      -0.005100
 9170 Fit      -0.007941
 9171 Fit      -0.009968
 9172 Fit      -0.011098
 9173 Fit      -0.011490
 9174 Fit      -0.011357
 9175 Fit      -0.009150
 9176 Fit      -0.008835
 9177 Fit      -0.007928
 9178 Fit      -0.006213
 9179 Fit      -0.003527
 9180 Fit       0.000039
 9181 Fit       0.003802
 9182 Fit       0.003790
 9183 Fit       0.000024
 9184 Fit      -0.003543
 9185 Fit      -0.006229
 9186 Fit      -0.007943
 9187 Fit      -0.008849
 9188 Fit      -0.009164
 9189 Fit      -0.007236
 9190 Fit      -0.006619
 9191 Fit      -0.005408
 9192 Fit      -0.003412
 9193 Fit      -0.000504
 9194 Fit       0.003188
 9195 Fit       0.006970
 9196 Fit       0.009491
 9197 Fit       0.009487
 9198 Fit       0.006959
 9199 Fit       0.003173
 9200 Fit      -0.000520
 9201 Fit      -0.003427
 9202 Fit      -0.005422
 9203 Fit      -0.006633
 9204 Fit      -0.007248
 9205 Fit      -0.005625
 9206 Fit      -0.004845
 9207 Fit      -0.003525
 9208 Fit      -0.001531
 9209 Fit       0.001196
 9210 Fit       0.004479
 9211 Fit       0.007693
 9212 Fit       0.009767
 9213 Fit       0.009763
 9214 Fit       0.007683
 9215 Fit       0.004466
 9216 Fit       0.001182
 9217 Fit      -0.001545
 9218 Fit      -0.003538
 9219 Fit      -0.004857
 9220 Fit      -0.005637
 9221 Fit      -0.003483
 9222 Fit      -0.002207
 9223 Fit      -0.000412
 9224 Fit       0.001894
 9225 Fit       0.004508
 9226 Fit       0.006935
 9227 Fit       0.008442
 9228 Fit       0.008439
 9229 Fit       0.006927
 9230 Fit       0.004498
 9231 Fit       0.001882
 9232 Fit      -0.000424
 9233 Fit      -0.002219
 9234 Fit      -0.003495
 9235 Fit      -0.002475
 9236 Fit      -0.001334
 9237 Fit       0.000172
 9238 Fit       0.001992
 9239 Fit       0.003938
 9240 Fit       0.005651
 9241 Fit       0.006677
 9242 Fit       0.006675
 9243 Fit       0.005646
 9244 Fit       0.003929
 9245 Fit       0.001982
 9246 Fit       0.000162
 9247 Fit      -0.001344
 9248 Fit      -0.002485
 9249 Fit      -0.000775
 9250 Fit       0.000433
 9251 Fit       0.001812
 9252 Fit       0.003211
 9253 Fit       0.004388
 9254 Fit       0.005071
 9255 Fit       0.005069
 9256 Fit       0.004384
 9257 Fit       0.003205
 9258 Fit       0.001804
 9259 Fit       0.000424
 9260 Fit      -0.000784
 9261 Fit       0.000521
 9262 Fit       0.001548
 9263 Fit       0.002543
 9264 Fit       0.003349
 9265 Fit       0.003804
 9266 Fit       0.003802
 9267 Fit       0.003345
 9268 Fit       0.002538
 9269 Fit       0.001541
 9270 Fit       0.000514
 9271 Fit       0.001291
 9272 Fit       0.002001
 9273 Fit       0.002558
 9274 Fit       0.002867
 9275 Fit       0.002866
 9276 Fit       0.002556
 9277 Fit       0.001997
 9278 Fit       0.001286
 9279 Fit       0.002194
 9280 Fit       0.002193
 9281 Fit      -0.035737
 9282 Fit      -0.036808
 9283 Fit      -0.036811
 9284 Fit      -0.035745
 9285 Fit      -0.034804
 9286 Fit      -0.038037
 9287 Fit      -0.040525
 9288 Fit      -0.041889
 9289 Fit      -0.041892
 9290 Fit      -0.040535
 9291 Fit      -0.038051
 9292 Fit      -0.034821
 9293 Fit      -0.033629
 9294 Fit      -0.037790
 9295 Fit      -0.041608
 9296 Fit      -0.044583
 9297 Fit      -0.046227
 9298 Fit      -0.046231
 9299 Fit      -0.044594
 9300 Fit      -0.041625
 9301 Fit      -0.037810
 9302 Fit      -0.033650
 9303 Fit      -0.035038
 9304 Fit      -0.039582
 9305 Fit      -0.043795
 9306 Fit      -0.047106
 9307 Fit      -0.048945
 9308 Fit      -0.048950
 9309 Fit      -0.047118
 9310 Fit      -0.043813
 9311 Fit      -0.039604
 9312 Fit      -0.035062
 9313 Fit      -0.035115
 9314 Fit      -0.039706
 9315 Fit      -0.043978
 9316 Fit      -0.047345
 9317 Fit      -0.049219
 9318 Fit      -0.049224
 9319 Fit      -0.047358
 9320 Fit      -0.043997
 9321 Fit      -0.039729
 9322 Fit      -0.035139
 9323 Fit      -0.033707
 9324 Fit      -0.037943
 9325 Fit      -0.041858
 9326 Fit      -0.044929
 9327 Fit      -0.046632
 9328 Fit      -0.046637
 9329 Fit      -0.044941
 9330 Fit      -0.041877
 9331 Fit      -0.037966
 9332 Fit      -0.033731
 9333 Fit      -0.030930
 9334 Fit      -0.034443
 9335 Fit      -0.037626
 9336 Fit      -0.040080
 9337 Fit      -0.041427
 9338 Fit      -0.041431
 9339 Fit      -0.040092
 9340 Fit      -0.037643
 9341 Fit      -0.034464
 9342 Fit      -0.030953
 9343 Fit      -0.027134
 9344 Fit      -0.029686
 9345 Fit      -0.031899
 9346 Fit      -0.033541
 9347 Fit      -0.034419
 9348 Fit      -0.034423
 9349 Fit      -0.033552
 9350 Fit      -0.031914
 9351 Fit      -0.029704
 9352 Fit      -0.027154
 9353 Fit      -0.021040
 9354 Fit      -0.022783
 9355 Fit      -0.024297
 9356 Fit      -0.025472
 9357 Fit      -0.026251
 9358 Fit      -0.026632
 9359 Fit      -0.026635
 9360 Fit      -0.026260
 9361 Fit      -0.025486
 9362 Fit      -0.024313
 9363 Fit      -0.022801
 9364 Fit      -0.021058
 9365 Fit      -0.016372
 9366 Fit      -0.017468
 9367 Fit      -0.018320
 9368 Fit      -0.018847
 9369 Fit      -0.019043
 9370 Fit      -0.019006
 9371 Fit      -0.018915
 9372 Fit      -0.018918
 9373 Fit      -0.019014
 9374 Fit      -0.019055
 9375 Fit      -0.018862
 9376 Fit      -0.018336
 9377 Fit      -0.017485
 9378 Fit      -0.016389
 9379 Fit      -0.013590
 9380 Fit      -0.014013
 9381 Fit      -0.014083
 9382 Fit      -0.013753
 9383 Fit      -0.013093
 9384 Fit      -0.012334
 9385 Fit      -0.011821
 9386 Fit      -0.011824
 9387 Fit      -0.012342
 9388 Fit      -0.013104
 9389 Fit      -0.013767
 9390 Fit      -0.014098
 9391 Fit      -0.014028
 9392 Fit      -0.013604
 9393 Fit      -0.010990
 9394 Fit      -0.010863
 9395 Fit      -0.010306
 9396 Fit      -0.009295
 9397 Fit      -0.007952
 9398 Fit      -0.006609
 9399 Fit      -0.005747
 9400 Fit      -0.005749
 9401 Fit      -0.006616
 9402 Fit      -0.007963
 9403 Fit      -0.009308
 9404 Fit      -0.010319
 9405 Fit      -0.010877
 9406 Fit      -0.011004
 9407 Fit      -0.008677
 9408 Fit      -0.008140
 9409 Fit      -0.007141
 9410 Fit      -0.005670
 9411 Fit      -0.003883
 9412 Fit      -0.002167
 9413 Fit      -0.001086
 9414 Fit      -0.001088
 9415 Fit      -0.002174
 9416 Fit      -0.003893
 9417 Fit      -0.005682
 9418 Fit      -0.007153
 9419 Fit      -0.008153
 9420 Fit      -0.008689
 9421 Fit      -0.006707
 9422 Fit      -0.005913
 9423 Fit      -0.004669
 9424 Fit      -0.002988
 9425 Fit      -0.001043
 9426 Fit       0.000771
 9427 Fit       0.001895
 9428 Fit       0.001892
 9429 Fit       0.000764
 9430 Fit      -0.001052
 9431 Fit      -0.003000
 9432 Fit      -0.004681
 9433 Fit      -0.005925
 9434 Fit      -0.006719
 9435 Fit      -0.005101
 9436 Fit      -0.004189
 9437 Fit      -0.002884
 9438 Fit      -0.001222
 9439 Fit       0.000621
 9440 Fit       0.002286
 9441 Fit       0.003296
 9442 Fit       0.003294
 9443 Fit       0.002280
 9444 Fit       0.000613
 9445 Fit      -0.001232
 9446 Fit      -0.002895
 9447 Fit      -0.004200
 9448 Fit      -0.005111
 9449 Fit      -0.003839
 9450 Fit      -0.002922
 9451 Fit      -0.001694
 9452 Fit      -0.000207
 9453 Fit       0.001373
 9454 Fit       0.002750
 9455 Fit       0.003566
 9456 Fit       0.003564
 9457 Fit       0.002745
 9458 Fit       0.001365
 9459 Fit      -0.000216
 9460 Fit      -0.001703
 9461 Fit      -0.002932
 9462 Fit      -0.003848
 9463 Fit      -0.002029
 9464 Fit      -0.000954
 9465 Fit       0.000287
 9466 Fit       0.001550
 9467 Fit       0.002614
 9468 Fit       0.003230
 9469 Fit       0.003229
 9470 Fit       0.002610
 9471 Fit       0.001544
 9472 Fit       0.000279
 9473 Fit      -0.000962
 9474 Fit      -0.002038
 9475 Fit      -0.000519
 9476 Fit       0.000470
 9477 Fit       0.001439
 9478 Fit       0.002230
 9479 Fit       0.002678
 9480 Fit       0.002676
 9481 Fit       0.002226
 9482 Fit       0.001434
 9483 Fit       0.000464
 9484 Fit      -0.000526
 9485 Fit       0.000496
 9486 Fit       0.001223
 9487 Fit       0.001800
 9488 Fit       0.002121
 9489 Fit       0.002120
 9490 Fit       0.001797
 9491 Fit       0.001219
 9492 Fit       0.000491
 9493 Fit       0.001418
 9494 Fit       0.001647
 9495 Fit       0.001646
 9496 Fit       0.001415
 9497 Fit      -0.036461
 9498 Fit      -0.037547
 9499 Fit      -0.037550
 9500 Fit      -0.036468
 9501 Fit      -0.035775
 9502 Fit      -0.037943
 9503 Fit      -0.039125
 9504 Fit      -0.039128
 9505 Fit      -0.037952
 9506 Fit      -0.035788
 9507 Fit      -0.032875
 9508 Fit      -0.035723
 9509 Fit      -0.037901
 9510 Fit      -0.039090
 9511 Fit      -0.039093
 9512 Fit      -0.037910
 9513 Fit      -0.035736
 9514 Fit      -0.032892
 9515 Fit      -0.031524
 9516 Fit      -0.034150
 9517 Fit      -0.036151
 9518 Fit      -0.037241
 9519 Fit      -0.037244
 9520 Fit      -0.036160
 9521 Fit      -0.034163
 9522 Fit      -0.031540
 9523 Fit      -0.028977
 9524 Fit      -0.031172
 9525 Fit      -0.032824
 9526 Fit      -0.033717
 9527 Fit      -0.033720
 9528 Fit      -0.032832
 9529 Fit      -0.031184
 9530 Fit      -0.028993
 9531 Fit      -0.025521
 9532 Fit      -0.027140
 9533 Fit      -0.028328
 9534 Fit      -0.028960
 9535 Fit      -0.028962
 9536 Fit      -0.028336
 9537 Fit      -0.027151
 9538 Fit      -0.025535
 9539 Fit      -0.020301
 9540 Fit      -0.021540
 9541 Fit      -0.022528
 9542 Fit      -0.023208
 9543 Fit      -0.023554
 9544 Fit      -0.023556
 9545 Fit      -0.023215
 9546 Fit      -0.022538
 9547 Fit      -0.021553
 9548 Fit      -0.020316
 9549 Fit      -0.016023
 9550 Fit      -0.016825
 9551 Fit      -0.017419
 9552 Fit      -0.017793
 9553 Fit      -0.017983
 9554 Fit      -0.018053
 9555 Fit      -0.018055
 9556 Fit      -0.017989
 9557 Fit      -0.017803
 9558 Fit      -0.017431
 9559 Fit      -0.016838
 9560 Fit      -0.016037
 9561 Fit      -0.013199
 9562 Fit      -0.013452
 9563 Fit      -0.013472
 9564 Fit      -0.013304
 9565 Fit      -0.013059
 9566 Fit      -0.012885
 9567 Fit      -0.012887
 9568 Fit      -0.013065
 9569 Fit      -0.013312
 9570 Fit      -0.013483
 9571 Fit      -0.013464
 9572 Fit      -0.013212
 9573 Fit      -0.010575
 9574 Fit      -0.010376
 9575 Fit      -0.009932
 9576 Fit      -0.009329
 9577 Fit      -0.008737
 9578 Fit      -0.008367
 9579 Fit      -0.008369
 9580 Fit      -0.008743
 9581 Fit      -0.009337
 9582 Fit      -0.009942
 9583 Fit      -0.010387
 9584 Fit      -0.010586
 9585 Fit      -0.008259
 9586 Fit      -0.007728
 9587 Fit      -0.006956
 9588 Fit      -0.006056
 9589 Fit      -0.005233
 9590 Fit      -0.004735
 9591 Fit      -0.004737
 9592 Fit      -0.005238
 9593 Fit      -0.006064
 9594 Fit      -0.006965
 9595 Fit      -0.007738
 9596 Fit      -0.008270
 9597 Fit      -0.006314
 9598 Fit      -0.005579
 9599 Fit      -0.004627
 9600 Fit      -0.003582
 9601 Fit      -0.002661
 9602 Fit      -0.002113
 9603 Fit      -0.002114
 9604 Fit      -0.002665
 9605 Fit      -0.003589
 9606 Fit      -0.004635
 9607 Fit      -0.005588
 9608 Fit      -0.006324
 9609 Fit      -0.004754
 9610 Fit      -0.003935
 9611 Fit      -0.002938
 9612 Fit      -0.001889
 9613 Fit      -0.000989
 9614 Fit      -0.000462
 9615 Fit      -0.000463
 9616 Fit      -0.000993
 9617 Fit      -0.001895
 9618 Fit      -0.002945
 9619 Fit      -0.003943
 9620 Fit      -0.004763
 9621 Fit      -0.003555
 9622 Fit      -0.002744
 9623 Fit      -0.001804
 9624 Fit      -0.000850
 9625 Fit      -0.000052
 9626 Fit       0.000407
 9627 Fit       0.000406
 9628 Fit      -0.000056
 9629 Fit      -0.000856
 9630 Fit      -0.001811
 9631 Fit      -0.002752
 9632 Fit      -0.003563
 9633 Fit      -0.001921
 9634 Fit      -0.001096
 9635 Fit      -0.000286
 9636 Fit       0.000375
 9637 Fit       0.000749
 9638 Fit       0.000748
 9639 Fit       0.000372
 9640 Fit      -0.000290
 9641 Fit      -0.001102
 9642 Fit      -0.001928
 9643 Fit      -0.000678
 9644 Fit      -0.000021
 9645 Fit       0.000501
 9646 Fit       0.000793
 9647 Fit       0.000792
 9648 Fit       0.000499
 9649 Fit      -0.000025
 9650 Fit      -0.000683
 9651 Fit       0.000479
 9652 Fit       0.000701
 9653 Fit       0.000700
 9654 Fit       0.000477
 9655 Fit      -0.024538
 9656 Fit      -0.024540
 9657 Fit      -0.019870
 9658 Fit      -0.020425
 9659 Fit      -0.020711
 9660 Fit      -0.020712
 9661 Fit      -0.020430
 9662 Fit      -0.019878
 9663 Fit      -0.015949
 9664 Fit      -0.016358
 9665 Fit      -0.016612
 9666 Fit      -0.016731
 9667 Fit      -0.016733
 9668 Fit      -0.016617
 9669 Fit      -0.016365
 9670 Fit      -0.015958
 9671 Fit      -0.012706
 9672 Fit      -0.012892
 9673 Fit      -0.012951
 9674 Fit      -0.012934
 9675 Fit      -0.012905
 9676 Fit      -0.012906
 9677 Fit      -0.012938
 9678 Fit      -0.012957
 9679 Fit      -0.012900
 9680 Fit      -0.012715
 9681 Fit      -0.010216
 9682 Fit      -0.010082
 9683 Fit      -0.009854
 9684 Fit      -0.009617
 9685 Fit      -0.009467
 9686 Fit      -0.009469
 9687 Fit      -0.009621
 9688 Fit      -0.009860
 9689 Fit      -0.010090
 9690 Fit      -0.010225
 9691 Fit      -0.008015
 9692 Fit      -0.007644
 9693 Fit      -0.007209
 9694 Fit      -0.006817
 9695 Fit      -0.006584
 9696 Fit      -0.006585
 9697 Fit      -0.006821
 9698 Fit      -0.007215
 9699 Fit      -0.007652
 9700 Fit      -0.008024
 9701 Fit      -0.006166
 9702 Fit      -0.005647
 9703 Fit      -0.005092
 9704 Fit      -0.004616
 9705 Fit      -0.004338
 9706 Fit      -0.004340
 9707 Fit      -0.004619
 9708 Fit      -0.005097
 9709 Fit      -0.005654
 9710 Fit      -0.006174
 9711 Fit      -0.004684
 9712 Fit      -0.004100
 9713 Fit      -0.003505
 9714 Fit      -0.003009
 9715 Fit      -0.002725
 9716 Fit      -0.002726
 9717 Fit      -0.003012
 9718 Fit      -0.003510
 9719 Fit      -0.004106
 9720 Fit      -0.004691
 9721 Fit      -0.002962
 9722 Fit      -0.002388
 9723 Fit      -0.001922
 9724 Fit      -0.001658
 9725 Fit      -0.001659
 9726 Fit      -0.001924
 9727 Fit      -0.002393
 9728 Fit      -0.002967
 9729 Fit      -0.001645
 9730 Fit      -0.001236
 9731 Fit      -0.001008
 9732 Fit      -0.001008
 9733 Fit      -0.001238
 9734 Fit      -0.001649
 9735 Fit      -0.000640
 9736 Fit      -0.000640
 9737 Fit      -0.015303
 9738 Fit      -0.015304
 9739 Fit      -0.012394
 9740 Fit      -0.012426
 9741 Fit      -0.012427
 9742 Fit      -0.012397
 9743 Fit      -0.009883
 9744 Fit      -0.009818
 9745 Fit      -0.009772
 9746 Fit      -0.009774
 9747 Fit      -0.009821
 9748 Fit      -0.009887
 9749 Fit      -0.007739
 9750 Fit      -0.007567
 9751 Fit      -0.007463
 9752 Fit      -0.007464
 9753 Fit      -0.007570
 9754 Fit      -0.007744
 9755 Fit      -0.005945
 9756 Fit      -0.005704
 9757 Fit      -0.005566
 9758 Fit      -0.005566
 9759 Fit      -0.005707
 9760 Fit      -0.005949
 9761 Fit      -0.004244
 9762 Fit      -0.004090
 9763 Fit      -0.004091
 9764 Fit      -0.004246
 9765 Fit      -0.003001
 9766 Fit      -0.003002
 -----------------------------------------------------------------
 Leave Link  602 at Thu Apr 21 16:37:37 2022, MaxMem=   104857600 cpu:               0.6 elap:               0.6
 (Enter /opt/ohpc/pub/libs/gaussian/g16-A.03/haswell/g16/l9999.exe)

 Test job not archived.
 1\1\GINC-CASCADEB033\SP\RB3LYP\6-311++G(d,p)\C5H6N2\MNG228\21-Apr-2022
 \0\\#P B3LYP/6-311++G(d,p) Geom=Allcheck SCF=Tight EmpiricalDispersion
 =GD3BJ Pop=CHELPG SP IOp(6/33=2)\\1VI geo opt\\0,1\H,0,1.0094590308,-0
 .1390470408,-1.74744955\C,0,2.06763723,-0.2824100713,-1.9150735929\H,0
 ,2.4097640115,-0.3227130591,-2.9407800598\C,0,2.8867425985,-0.40064878
 62,-0.8730131572\H,0,2.5158982828,-0.3559854446,0.1441148011\N,0,4.275
 4305777,-0.5901079499,-0.9317806337\C,0,5.102130809,-0.7081386946,0.16
 56520448\H,0,4.7138890307,-0.6607671209,1.1719201468\N,0,6.3535524239,
 -0.876217597,-0.1747917741\C,0,6.3604590186,-0.8700836125,-1.556594427
 6\H,0,7.2754735143,-0.9918884318,-2.1141609973\C,0,5.0954314706,-0.695
 4314763,-2.0457608096\H,0,4.7126320016,-0.638060715,-3.0488819904\\Ver
 sion=ES64L-G16RevA.03\State=1-A\HF=-303.7146093\RMSD=5.435e-09\Dipole=
 -1.1812069,0.1628553,-0.4170865\Quadrupole=-1.0029375,-2.552736,3.5556
 735,-0.1951542,-4.0064957,0.5104423\PG=C01 [X(C5H6N2)]\\@


      THE ONE-EYED VIEW OF OUR UNIVERSE SAYS YOU MUST NOT LOOK
      FAR AFIELD FOR PROBLEMS.  SUCH PROBLEMS MAY NEVER ARRIVE. 
      INSTEAD, TEND TO THE WOLF WITHIN YOUR FENCES.
      THE PACKS RANGING OUTSIDE MAY NOT EVEN EXIST.

                              -- THE AZHAR BOOK SHAMRA I:4
                                 CHILDREN OF DUNE, BY FRANK HERBERT
 Job cpu time:       0 days  0 hours  0 minutes 59.9 seconds.
 Elapsed time:       0 days  0 hours  1 minutes  0.6 seconds.
 File lengths (MBytes):  RWF=    272 Int=      0 D2E=      0 Chk=     32 Scr=     32
 Normal termination of Gaussian 16 at Thu Apr 21 16:37:37 2022.
