 Entering Gaussian System, Link 0=g16
 Initial command:
 /opt/ohpc/pub/libs/gaussian/g16-A.03/haswell/g16/l1.exe "g16_scratch/Gau-363982.inp" -scrdir="g16_scratch/"
 Entering Link 1 = /opt/ohpc/pub/libs/gaussian/g16-A.03/haswell/g16/l1.exe PID=    363983.
  
 Copyright (c) 1988,1990,1992,1993,1995,1998,2003,2009,2016,
            Gaussian, Inc.  All Rights Reserved.
  
 This is part of the Gaussian(R) 16 program.  It is based on
 the Gaussian(R) 09 system (copyright 2009, Gaussian, Inc.),
 the Gaussian(R) 03 system (copyright 2003, Gaussian, Inc.),
 the Gaussian(R) 98 system (copyright 1998, Gaussian, Inc.),
 the Gaussian(R) 94 system (copyright 1995, Gaussian, Inc.),
 the Gaussian 92(TM) system (copyright 1992, Gaussian, Inc.),
 the Gaussian 90(TM) system (copyright 1990, Gaussian, Inc.),
 the Gaussian 88(TM) system (copyright 1988, Gaussian, Inc.),
 the Gaussian 86(TM) system (copyright 1986, Carnegie Mellon
 University), and the Gaussian 82(TM) system (copyright 1983,
 Carnegie Mellon University). Gaussian is a federally registered
 trademark of Gaussian, Inc.
  
 This software contains proprietary and confidential information,
 including trade secrets, belonging to Gaussian, Inc.
  
 This software is provided under written license and may be
 used, copied, transmitted, or stored only in accord with that
 written license.
  
 The following legend is applicable only to US Government
 contracts under FAR:
  
                    RESTRICTED RIGHTS LEGEND
  
 Use, reproduction and disclosure by the US Government is
 subject to restrictions as set forth in subparagraphs (a)
 and (c) of the Commercial Computer Software - Restricted
 Rights clause in FAR 52.227-19.
  
 Gaussian, Inc.
 340 Quinnipiac St., Bldg. 40, Wallingford CT 06492
  
  
 ---------------------------------------------------------------
 Warning -- This program may not be used in any manner that
 competes with the business of Gaussian, Inc. or will provide
 assistance to any competitor of Gaussian, Inc.  The licensee
 of this program is prohibited from giving any competitor of
 Gaussian, Inc. access to this program.  By using this program,
 the user acknowledges that Gaussian, Inc. is engaged in the
 business of creating and licensing software in the field of
 computational chemistry and represents and warrants to the
 licensee that it is not a competitor of Gaussian, Inc. and that
 it will not use this program in any manner prohibited above.
 ---------------------------------------------------------------
  

 Cite this work as:
 Gaussian 16, Revision A.03,
 M. J. Frisch, G. W. Trucks, H. B. Schlegel, G. E. Scuseria, 
 M. A. Robb, J. R. Cheeseman, G. Scalmani, V. Barone, 
 G. A. Petersson, H. Nakatsuji, X. Li, M. Caricato, A. V. Marenich, 
 J. Bloino, B. G. Janesko, R. Gomperts, B. Mennucci, H. P. Hratchian, 
 J. V. Ortiz, A. F. Izmaylov, J. L. Sonnenberg, D. Williams-Young, 
 F. Ding, F. Lipparini, F. Egidi, J. Goings, B. Peng, A. Petrone, 
 T. Henderson, D. Ranasinghe, V. G. Zakrzewski, J. Gao, N. Rega, 
 G. Zheng, W. Liang, M. Hada, M. Ehara, K. Toyota, R. Fukuda, 
 J. Hasegawa, M. Ishida, T. Nakajima, Y. Honda, O. Kitao, H. Nakai, 
 T. Vreven, K. Throssell, J. A. Montgomery, Jr., J. E. Peralta, 
 F. Ogliaro, M. J. Bearpark, J. J. Heyd, E. N. Brothers, K. N. Kudin, 
 V. N. Staroverov, T. A. Keith, R. Kobayashi, J. Normand, 
 K. Raghavachari, A. P. Rendell, J. C. Burant, S. S. Iyengar, 
 J. Tomasi, M. Cossi, J. M. Millam, M. Klene, C. Adamo, R. Cammi, 
 J. W. Ochterski, R. L. Martin, K. Morokuma, O. Farkas, 
 J. B. Foresman, and D. J. Fox, Gaussian, Inc., Wallingford CT, 2016.
 
 ******************************************
 Gaussian 16:  ES64L-G16RevA.03 25-Dec-2016
                21-Apr-2022 
 ******************************************
 %Mem=192GB
 %NProcShared=48
 Will use up to   48 processors via shared memory.
 %Chk=1VI-2.chk
 ---------------------------------------------------------------------
 #n B3LYP/6-311++G(d,p) Opt freq EmpiricalDispersion=GD3BJ IOp(6/33=2)
 ---------------------------------------------------------------------
 1/18=20,19=15,26=3,38=1/1,3;
 2/9=110,12=2,17=6,18=5,40=1/2;
 3/5=4,6=6,7=1111,11=2,25=1,30=1,71=1,74=-5,124=41/1,2,3;
 4//1;
 5/5=2,38=5/2;
 6/7=2,8=2,9=2,10=2,28=1,33=2/1;
 7//1,2,3,16;
 1/18=20,19=15,26=3/3(2);
 2/9=110/2;
 99//99;
 2/9=110/2;
 3/5=4,6=6,7=1111,11=2,25=1,30=1,71=1,74=-5,124=41/1,2,3;
 4/5=5,16=3,69=1/1;
 5/5=2,38=5/2;
 7//1,2,3,16;
 1/18=20,19=15,26=3/3(-5);
 2/9=110/2;
 6/7=2,8=2,9=2,10=2,19=2,28=1,33=2/1;
 99/9=1/99;
 -----------
 1VI geo opt
 -----------
 Symbolic Z-matrix:
 Charge =  0 Multiplicity = 1
 H                     0.9819   -0.5879   -1.8386 
 C                     2.0584   -0.6745   -1.9627 
 H                     2.4195   -0.855    -2.9686 
 C                     2.8696   -0.5664   -0.901 
 H                     2.43     -0.3923    0.078 
 N                     4.2608   -0.6617   -0.8973 
 C                     5.1395   -0.5586    0.1623 
 H                     4.8027   -0.3982    1.1771 
 N                     6.3973   -0.6743   -0.2034 
 C                     6.3547   -0.8719   -1.5538 
 H                     7.2598   -0.9984   -2.1337 
 C                     5.0566   -0.8814   -2.0027 
 H                     4.6384   -1.012    -2.9903 
 

 GradGradGradGradGradGradGradGradGradGradGradGradGradGradGradGradGradGrad
 Berny optimization.
 Initialization pass.
                           ----------------------------
                           !    Initial Parameters    !
                           ! (Angstroms and Degrees)  !
 --------------------------                            --------------------------
 ! Name  Definition              Value          Derivative Info.                !
 --------------------------------------------------------------------------------
 ! R1    R(1,2)                  1.0871         estimate D2E/DX2                !
 ! R2    R(2,3)                  1.0839         estimate D2E/DX2                !
 ! R3    R(2,4)                  1.3405         estimate D2E/DX2                !
 ! R4    R(4,5)                  1.0872         estimate D2E/DX2                !
 ! R5    R(4,6)                  1.3945         estimate D2E/DX2                !
 ! R6    R(6,7)                  1.3804         estimate D2E/DX2                !
 ! R7    R(6,12)                 1.3797         estimate D2E/DX2                !
 ! R8    R(7,8)                  1.0812         estimate D2E/DX2                !
 ! R9    R(7,9)                  1.315          estimate D2E/DX2                !
 ! R10   R(9,10)                 1.3654         estimate D2E/DX2                !
 ! R11   R(10,11)                1.0824         estimate D2E/DX2                !
 ! R12   R(10,12)                1.3736         estimate D2E/DX2                !
 ! R13   R(12,13)                1.0804         estimate D2E/DX2                !
 ! A1    A(1,2,3)              116.6873         estimate D2E/DX2                !
 ! A2    A(1,2,4)              120.16           estimate D2E/DX2                !
 ! A3    A(3,2,4)              123.1515         estimate D2E/DX2                !
 ! A4    A(2,4,5)              118.7784         estimate D2E/DX2                !
 ! A5    A(2,4,6)              126.8929         estimate D2E/DX2                !
 ! A6    A(5,4,6)              114.3274         estimate D2E/DX2                !
 ! A7    A(4,6,7)              129.1977         estimate D2E/DX2                !
 ! A8    A(4,6,12)             125.7474         estimate D2E/DX2                !
 ! A9    A(7,6,12)             105.0544         estimate D2E/DX2                !
 ! A10   A(6,7,8)              122.2257         estimate D2E/DX2                !
 ! A11   A(6,7,9)              112.8817         estimate D2E/DX2                !
 ! A12   A(8,7,9)              124.8925         estimate D2E/DX2                !
 ! A13   A(7,9,10)             104.9472         estimate D2E/DX2                !
 ! A14   A(9,10,11)            121.379          estimate D2E/DX2                !
 ! A15   A(9,10,12)            110.7138         estimate D2E/DX2                !
 ! A16   A(11,10,12)           127.9072         estimate D2E/DX2                !
 ! A17   A(6,12,10)            106.3898         estimate D2E/DX2                !
 ! A18   A(6,12,13)            121.8948         estimate D2E/DX2                !
 ! A19   A(10,12,13)           131.7117         estimate D2E/DX2                !
 ! D1    D(1,2,4,5)              0.034          estimate D2E/DX2                !
 ! D2    D(1,2,4,6)            179.594          estimate D2E/DX2                !
 ! D3    D(3,2,4,5)           -179.5455         estimate D2E/DX2                !
 ! D4    D(3,2,4,6)              0.0145         estimate D2E/DX2                !
 ! D5    D(2,4,6,7)           -179.9987         estimate D2E/DX2                !
 ! D6    D(2,4,6,12)             0.2973         estimate D2E/DX2                !
 ! D7    D(5,4,6,7)             -0.4219         estimate D2E/DX2                !
 ! D8    D(5,4,6,12)           179.8741         estimate D2E/DX2                !
 ! D9    D(4,6,7,8)              1.2073         estimate D2E/DX2                !
 ! D10   D(4,6,7,9)           -178.7194         estimate D2E/DX2                !
 ! D11   D(12,6,7,8)          -179.0416         estimate D2E/DX2                !
 ! D12   D(12,6,7,9)             1.0318         estimate D2E/DX2                !
 ! D13   D(4,6,12,10)          178.6276         estimate D2E/DX2                !
 ! D14   D(4,6,12,13)           -0.7466         estimate D2E/DX2                !
 ! D15   D(7,6,12,10)           -1.1348         estimate D2E/DX2                !
 ! D16   D(7,6,12,13)          179.491          estimate D2E/DX2                !
 ! D17   D(6,7,9,10)            -0.469          estimate D2E/DX2                !
 ! D18   D(8,7,9,10)           179.6066         estimate D2E/DX2                !
 ! D19   D(7,9,10,11)          179.7798         estimate D2E/DX2                !
 ! D20   D(7,9,10,12)           -0.296          estimate D2E/DX2                !
 ! D21   D(9,10,12,6)            0.9241         estimate D2E/DX2                !
 ! D22   D(9,10,12,13)        -179.7876         estimate D2E/DX2                !
 ! D23   D(11,10,12,6)        -179.1579         estimate D2E/DX2                !
 ! D24   D(11,10,12,13)          0.1304         estimate D2E/DX2                !
 --------------------------------------------------------------------------------
 Trust Radius=3.00D-01 FncErr=1.00D-07 GrdErr=1.00D-06 EigMax=2.50D+02 EigMin=1.00D-04
 Number of steps in this run=     66 maximum allowed number of steps=    100.
 GradGradGradGradGradGradGradGradGradGradGradGradGradGradGradGradGradGrad

                          Input orientation:                          
 ---------------------------------------------------------------------
 Center     Atomic      Atomic             Coordinates (Angstroms)
 Number     Number       Type             X           Y           Z
 ---------------------------------------------------------------------
      1          1           0        0.981900   -0.587900   -1.838600
      2          6           0        2.058400   -0.674500   -1.962700
      3          1           0        2.419500   -0.855000   -2.968600
      4          6           0        2.869600   -0.566400   -0.901000
      5          1           0        2.430000   -0.392300    0.078000
      6          7           0        4.260800   -0.661700   -0.897300
      7          6           0        5.139500   -0.558600    0.162300
      8          1           0        4.802700   -0.398200    1.177100
      9          7           0        6.397300   -0.674300   -0.203400
     10          6           0        6.354700   -0.871900   -1.553800
     11          1           0        7.259800   -0.998400   -2.133700
     12          6           0        5.056600   -0.881400   -2.002700
     13          1           0        4.638400   -1.012000   -2.990300
 ---------------------------------------------------------------------
                    Distance matrix (angstroms):
                    1          2          3          4          5
     1  H    0.000000
     2  C    1.087084   0.000000
     3  H    1.847955   1.083886   0.000000
     4  C    2.107835   1.340499   2.135615   0.000000
     5  H    2.410106   2.093366   3.081554   1.087198   0.000000
     6  N    3.412137   2.446591   2.778135   1.394465   2.091797
     7  C    4.614119   3.744627   4.157979   2.506614   2.715907
     8  H    4.871237   4.179219   4.803659   2.843179   2.614911
     9  N    5.657553   4.682007   4.847873   3.597632   3.987252
    10  C    5.387833   4.320227   4.181835   3.558848   4.277389
    11  H    6.298224   5.214280   4.913871   4.580396   5.346582
    12  C    4.088551   3.005597   2.808551   2.468995   3.386378
    13  H    3.856976   2.797547   2.224553   2.773515   3.830865
                    6          7          8          9         10
     6  N    0.000000
     7  C    1.380397   0.000000
     8  H    2.160144   1.081194   0.000000
     9  N    2.246394   1.314984   2.127148   0.000000
    10  C    2.204449   2.125998   3.176619   1.365445   0.000000
    11  H    3.261296   3.156060   4.166411   2.138926   1.082355
    12  C    1.379665   2.190502   3.226310   2.253408   1.373559
    13  H    2.155444   3.224215   4.215563   3.312791   2.242509
                   11         12         13
    11  H    0.000000
    12  C    2.210190   0.000000
    13  H    2.757841   1.080417   0.000000
 Stoichiometry    C5H6N2
 Framework group  C1[X(C5H6N2)]
 Deg. of freedom    33
 Full point group                 C1      NOp   1
 Largest Abelian subgroup         C1      NOp   1
 Largest concise Abelian subgroup C1      NOp   1
                         Standard orientation:                         
 ---------------------------------------------------------------------
 Center     Atomic      Atomic             Coordinates (Angstroms)
 Number     Number       Type             X           Y           Z
 ---------------------------------------------------------------------
      1          1           0        3.620693   -0.012372   -0.008841
      2          6           0        2.593311    0.342918   -0.005899
      3          1           0        2.449769    1.417218    0.003228
      4          6           0        1.578003   -0.532346   -0.005453
      5          1           0        1.803765   -1.595844   -0.007511
      6          7           0        0.215812   -0.234287    0.006003
      7          6           0       -0.865114   -1.092828    0.007042
      8          1           0       -0.747753   -2.167582    0.017613
      9          7           0       -2.018945   -0.462238   -0.007552
     10          6           0       -1.695338    0.864306   -0.007919
     11          1           0       -2.459393    1.630797   -0.022170
     12          6           0       -0.332200    1.031851    0.013252
     13          1           0        0.282875    1.920052    0.022389
 ---------------------------------------------------------------------
 Rotational constants (GHZ):           8.3740955           2.0870661           1.6707608
 Standard basis: 6-311++G(d,p) (5D, 7F)
 There are   203 symmetry adapted cartesian basis functions of A   symmetry.
 There are   196 symmetry adapted basis functions of A   symmetry.
   196 basis functions,   306 primitive gaussians,   203 cartesian basis functions
    25 alpha electrons       25 beta electrons
       nuclear repulsion energy       275.0423095012 Hartrees.
 NAtoms=   13 NActive=   13 NUniq=   13 SFac= 1.00D+00 NAtFMM=   60 NAOKFM=F Big=F
 Integral buffers will be    131072 words long.
 Raffenetti 2 integral format.
 Two-electron integral symmetry is turned on.
 Nuclear repulsion after empirical dispersion term =      275.0229040552 Hartrees.
 One-electron integrals computed using PRISM.
 NBasis=   196 RedAO= T EigKep=  8.58D-06  NBF=   196
 NBsUse=   196 1.00D-06 EigRej= -1.00D+00 NBFU=   196
 ExpMin= 3.60D-02 ExpMax= 6.29D+03 ExpMxC= 9.49D+02 IAcc=3 IRadAn=         5 AccDes= 0.00D+00
 Harris functional with IExCor=  402 and IRadAn=       5 diagonalized for initial guess.
 HarFok:  IExCor=  402 AccDes= 0.00D+00 IRadAn=         5 IDoV= 1 UseB2=F ITyADJ=14
 ICtDFT=  3500011 ScaDFX=  1.000000  1.000000  1.000000  1.000000
 FoFCou: FMM=F IPFlag=           0 FMFlag=      100000 FMFlg1=           0
         NFxFlg=           0 DoJE=T BraDBF=F KetDBF=T FulRan=T
         wScrn=  0.000000 ICntrl=       500 IOpCl=  0 I1Cent=   200000004 NGrid=           0
         NMat0=    1 NMatS0=      1 NMatT0=    0 NMatD0=    1 NMtDS0=    0 NMtDT0=    0
 Petite list used in FoFCou.
 Requested convergence on RMS density matrix=1.00D-08 within 128 cycles.
 Requested convergence on MAX density matrix=1.00D-06.
 Requested convergence on             energy=1.00D-06.
 No special actions if energy rises.
 SCF Done:  E(RB3LYP) =  -303.712733911     A.U. after   13 cycles
            NFock= 13  Conv=0.59D-08     -V/T= 2.0044
 SCF density gives NOpUse=  1 NOpAll=  1.

 **********************************************************************

            Population analysis using the SCF density.

 **********************************************************************

 Orbital symmetries:
 BldTbl:  Degeneracy threshold= 1.00D-02
       Occupied  (A) (A) (A) (A) (A) (A) (A) (A) (A) (A) (A) (A)
                 (A) (A) (A) (A) (A) (A) (A) (A) (A) (A) (A) (A)
                 (A)
       Virtual   (A) (A) (A) (A) (A) (A) (A) (A) (A) (A) (A) (A)
                 (A) (A) (A) (A) (A) (A) (A) (A) (A) (A) (A) (A)
                 (A) (A) (A) (A) (A) (A) (A) (A) (A) (A) (A) (A)
                 (A) (A) (A) (A) (A) (A) (A) (A) (A) (A) (A) (A)
                 (A) (A) (A) (A) (A) (A) (A) (A) (A) (A) (A) (A)
                 (A) (A) (A) (A) (A) (A) (A) (A) (A) (A) (A) (A)
                 (A) (A) (A) (A) (A) (A) (A) (A) (A) (A) (A) (A)
                 (A) (A) (A) (A) (A) (A) (A) (A) (A) (A) (A) (A)
                 (A) (A) (A) (A) (A) (A) (A) (A) (A) (A) (A) (A)
                 (A) (A) (A) (A) (A) (A) (A) (A) (A) (A) (A) (A)
                 (A) (A) (A) (A) (A) (A) (A) (A) (A) (A) (A) (A)
                 (A) (A) (A) (A) (A) (A) (A) (A) (A) (A) (A) (A)
                 (A) (A) (A) (A) (A) (A) (A) (A) (A) (A) (A) (A)
                 (A) (A) (A) (A) (A) (A) (A) (A) (A) (A) (A) (A)
                 (A) (A) (A)
 The electronic state is 1-A.
 Alpha  occ. eigenvalues --  -14.39606 -14.30554 -10.24150 -10.23742 -10.20741
 Alpha  occ. eigenvalues --  -10.19513 -10.18961  -1.04003  -0.91380  -0.78537
 Alpha  occ. eigenvalues --   -0.75693  -0.65801  -0.61411  -0.58134  -0.54657
 Alpha  occ. eigenvalues --   -0.47523  -0.46310  -0.46025  -0.44282  -0.42185
 Alpha  occ. eigenvalues --   -0.39887  -0.34543  -0.28611  -0.26119  -0.24342
 Alpha virt. eigenvalues --   -0.04527  -0.01018   0.00150   0.01132   0.01792
 Alpha virt. eigenvalues --    0.02797   0.03812   0.04507   0.04813   0.05633
 Alpha virt. eigenvalues --    0.06340   0.07459   0.08379   0.09774   0.09900
 Alpha virt. eigenvalues --    0.09975   0.11043   0.11421   0.12355   0.12829
 Alpha virt. eigenvalues --    0.13321   0.13452   0.13535   0.13711   0.14617
 Alpha virt. eigenvalues --    0.15755   0.16578   0.17908   0.19437   0.20973
 Alpha virt. eigenvalues --    0.21806   0.22057   0.22346   0.23688   0.24185
 Alpha virt. eigenvalues --    0.24967   0.26022   0.27312   0.27640   0.28378
 Alpha virt. eigenvalues --    0.29441   0.30410   0.31761   0.32931   0.35293
 Alpha virt. eigenvalues --    0.37032   0.38832   0.42310   0.44235   0.47121
 Alpha virt. eigenvalues --    0.49549   0.52140   0.53351   0.53466   0.55052
 Alpha virt. eigenvalues --    0.56581   0.58388   0.59358   0.61417   0.63007
 Alpha virt. eigenvalues --    0.65647   0.66989   0.67786   0.70491   0.71743
 Alpha virt. eigenvalues --    0.73283   0.76315   0.76846   0.79693   0.81750
 Alpha virt. eigenvalues --    0.83670   0.84253   0.88706   0.89345   0.89625
 Alpha virt. eigenvalues --    0.91648   0.92557   0.96724   0.97088   1.00804
 Alpha virt. eigenvalues --    1.03036   1.03108   1.05731   1.12667   1.13665
 Alpha virt. eigenvalues --    1.16367   1.18871   1.19282   1.25905   1.29160
 Alpha virt. eigenvalues --    1.34125   1.41079   1.43716   1.49893   1.52673
 Alpha virt. eigenvalues --    1.53588   1.58727   1.62355   1.62470   1.63926
 Alpha virt. eigenvalues --    1.66085   1.71363   1.72153   1.73435   1.75483
 Alpha virt. eigenvalues --    1.76048   1.77537   1.83937   1.84591   1.87979
 Alpha virt. eigenvalues --    1.91034   1.98503   2.02157   2.02786   2.06774
 Alpha virt. eigenvalues --    2.08642   2.12817   2.18566   2.24770   2.25884
 Alpha virt. eigenvalues --    2.27905   2.33013   2.40855   2.42921   2.44706
 Alpha virt. eigenvalues --    2.49347   2.54036   2.57586   2.58000   2.59808
 Alpha virt. eigenvalues --    2.62202   2.63411   2.66936   2.73403   2.74830
 Alpha virt. eigenvalues --    2.75502   2.77183   2.78587   2.79346   2.84038
 Alpha virt. eigenvalues --    2.84307   2.90065   2.91308   2.95457   2.96533
 Alpha virt. eigenvalues --    3.14851   3.16601   3.32151   3.39552   3.46942
 Alpha virt. eigenvalues --    3.58838   3.62379   3.65276   3.70864   3.76816
 Alpha virt. eigenvalues --    3.82807   3.85056   3.92468   4.08923   4.11028
 Alpha virt. eigenvalues --    4.48739   4.75641   5.09520   5.25486  23.74350
 Alpha virt. eigenvalues --   23.80786  23.91128  24.14143  24.20209  35.50135
 Alpha virt. eigenvalues --   35.66596
          Condensed to atoms (all electrons):
               1          2          3          4          5          6
     1  H    0.505744   0.425671  -0.030862  -0.077425  -0.012236   0.020059
     2  C    0.425671   5.141741   0.354519   0.572641   0.000157  -0.062756
     3  H   -0.030862   0.354519   0.557902   0.030939   0.011281  -0.032195
     4  C   -0.077425   0.572641   0.030939   5.028456   0.388083   0.191938
     5  H   -0.012236   0.000157   0.011281   0.388083   0.527549  -0.068548
     6  N    0.020059  -0.062756  -0.032195   0.191938  -0.068548   6.777955
     7  C    0.001930  -0.035982  -0.005409  -0.106292  -0.006810   0.126383
     8  H    0.000661   0.005598   0.000187  -0.006079   0.000927  -0.110625
     9  N    0.000325   0.007858   0.000816   0.022028   0.003712   0.031619
    10  C   -0.001087  -0.061586  -0.003832   0.040279  -0.009004  -0.137506
    11  H   -0.000059  -0.000773   0.000589   0.000089   0.000026   0.014728
    12  C    0.001989   0.042650   0.005497  -0.072260   0.008260   0.239730
    13  H   -0.000506  -0.014870  -0.001216   0.011262  -0.000798  -0.099537
               7          8          9         10         11         12
     1  H    0.001930   0.000661   0.000325  -0.001087  -0.000059   0.001989
     2  C   -0.035982   0.005598   0.007858  -0.061586  -0.000773   0.042650
     3  H   -0.005409   0.000187   0.000816  -0.003832   0.000589   0.005497
     4  C   -0.106292  -0.006079   0.022028   0.040279   0.000089  -0.072260
     5  H   -0.006810   0.000927   0.003712  -0.009004   0.000026   0.008260
     6  N    0.126383  -0.110625   0.031619  -0.137506   0.014728   0.239730
     7  C    5.377552   0.444945   0.333975   0.008953   0.030387  -0.170928
     8  H    0.444945   0.535561  -0.061775   0.001439  -0.000463   0.037102
     9  N    0.333975  -0.061775   6.587802   0.343836  -0.080336  -0.027769
    10  C    0.008953   0.001439   0.343836   5.450868   0.468662   0.216613
    11  H    0.030387  -0.000463  -0.080336   0.468662   0.534468  -0.122753
    12  C   -0.170928   0.037102  -0.027769   0.216613  -0.122753   5.492652
    13  H    0.021573   0.001804   0.003896  -0.046156  -0.003599   0.459176
              13
     1  H   -0.000506
     2  C   -0.014870
     3  H   -0.001216
     4  C    0.011262
     5  H   -0.000798
     6  N   -0.099537
     7  C    0.021573
     8  H    0.001804
     9  N    0.003896
    10  C   -0.046156
    11  H   -0.003599
    12  C    0.459176
    13  H    0.556226
 Mulliken charges:
               1
     1  H    0.165795
     2  C   -0.374870
     3  H    0.111782
     4  C   -0.023660
     5  H    0.157401
     6  N    0.108754
     7  C   -0.020276
     8  H    0.150719
     9  N   -0.165986
    10  C   -0.271479
    11  H    0.159033
    12  C   -0.109959
    13  H    0.112746
 Sum of Mulliken charges =  -0.00000
 Mulliken charges with hydrogens summed into heavy atoms:
               1
     2  C   -0.097293
     4  C    0.133741
     6  N    0.108754
     7  C    0.130443
     9  N   -0.165986
    10  C   -0.112447
    12  C    0.002787
 DipInt: DoE/N= T F RetVal/Mat= T F Init=T NMatP=  1 IDeriv=0 Min/MaxMlt=  0  4
 Entering OneElI...
 OneElI was handed 25769695761 working-precision words.
 Multipole integrals L=0 to 4 MinM= 0 MaxM= 0.
 Requested accuracy = 0.1000D-12
 ShPair: Thresh= 1.00D-13 NBox=     0 BxSize= 0.00D+00 RnKept= 1.19D+01
         NSMCal=                 2628 NSMKep=                2557
 PrmmSu-InSpLW:  IPartL=    0 NPrtUS=    1 NPrtUL=    1 DoSpLW=F IThBeg=    0 IThEnd=    0 NThAct=    1.
 PrsmSu:  NPrtUS=   1 ThrOK=F IAlg=1 NPAlg=1 LenDen=           0 ISkipM=0 DoSpLW=F IThBeg=    0 IThEnd=    0.
 Prism:   IPart=     0 DynPar=F LinDyn=F Incr=          25.
 PRISM was handed 25769515712 working-precision words and  2557 shell-pairs
 IPart=  0 NShTot=        2557 NBatch=          59 AvBLen=        43.3
 PrsmSu-ThDecC:  IPartSL=    0    0 NPrtUSL=    1    1 IThBeg=    0 IThEnd=    0 CPU=   -1 GPU=   -1 NThAct=    1.
 PrSmSu:  NxtVal=             26.
 Electronic moments (au):
        -50.00000000          1.26517451          0.12709905          0.01007419
       -517.94152640       -161.89693406        -33.98334163         -2.55623062
          0.01021953         -0.01970061       -568.50708271        -13.03621373
          0.05237323         96.41676229        -88.83757004          5.82767812
         -3.10434999         -2.06188637         -0.97793671         -0.99072425
     -11278.30017258      -1450.05806128       -142.08915647       -308.99312314
          2.87130522         33.87278471          0.57598920          0.33083468
         -0.10035706      -1327.95442265       -387.55677317       -137.24778864
          2.62918118         -0.66651743          0.43029060
 Electronic spatial extent (au):  <R**2>=            713.8218
 DipInt: DoE/N= F T RetVal/Mat= T F Init=T NMatP=  1 IDeriv=0 Min/MaxMlt=  0  4
 Nuclear    moments (au):
         50.00000000         -0.00000000          0.00000000         -0.00000000
        484.23978913        135.42106118          0.01504936          0.00000000
          0.00000000          0.00000000        608.07734558          8.12517906
          0.00009504        -93.39970658        102.95063491         -5.88882889
         -0.01391941          0.01238814          1.15320239          1.28026584
       9350.90927616        929.30182879          0.00001105        207.45558599
         -2.58227193        -35.88664163         -0.86226093          0.00029317
          0.00004265        935.95519449          0.11943242          0.08557019
         -3.20553371          0.94529029         -0.01991543
 Total      moments (au):
         -0.00000000          1.26517451          0.12709905          0.01007419
        -33.70173727        -26.47587288        -33.96829227         -2.55623062
          0.01021953         -0.01970061         39.57026287         -4.91103467
          0.05246827          3.01705570         14.11306488         -0.06115077
         -3.11826940         -2.04949823          0.17526568          0.28954159
      -1927.39089642       -520.75623249       -142.08914542       -101.53753715
          0.28903329         -2.01385692         -0.28627173          0.33112786
         -0.10031441       -391.99922816       -387.43734075       -137.16221845
         -0.57635253          0.27877286          0.41037518
 Traceless Quadrup. (au):
         -2.31976980          4.90609459         -2.58632479         -2.55623062
          0.01021953         -0.01970061
 Charge=             -0.0000 electrons
 Dipole moment (field-independent basis, Debye):
    X=              3.2158    Y=              0.3231    Z=              0.0256  Tot=              3.2320
 Quadrupole moment (field-independent basis, Debye-Ang):
   XX=            -45.3300   YY=            -35.6110   ZZ=            -45.6885
   XY=             -3.4382   XZ=              0.0137   YZ=             -0.0265
 Traceless Quadrupole moment (field-independent basis, Debye-Ang):
   XX=             -3.1202   YY=              6.5989   ZZ=             -3.4787
   XY=             -3.4382   XZ=              0.0137   YZ=             -0.0265
 Octapole moment (field-independent basis, Debye-Ang**2):
  XXX=             28.1646  YYY=             -3.4955  ZZZ=              0.0373  XYY=              2.1474
  XXY=             10.0451  XXZ=             -0.0435  XZZ=             -2.2195  YZZ=             -1.4588
  YYZ=              0.1247  XYZ=              0.2061
 Hexadecapole moment (field-independent basis, Debye-Ang**3):
 XXXX=           -725.9478 YYYY=           -196.1418 ZZZZ=            -53.5176 XXXY=            -38.2439
 XXXZ=              0.1089 YYYX=             -0.7585 YYYZ=             -0.1078 ZZZX=              0.1247
 ZZZY=             -0.0378 XXYY=           -147.6457 XXZZ=           -145.9275 YYZZ=            -51.6619
 XXYZ=             -0.2171 YYXZ=              0.1050 ZZXY=              0.1546
 N-N= 2.750229040552D+02 E-N=-1.255773250255D+03  KE= 3.023810423526D+02
 Entering OneElI...
 OneElI was handed 25769718726 working-precision words.
 Calculate electrostatic properties
    NBasis =   196  MinDer = 0  MaxDer = 0
    NGrid  =    13  NMatD  =   1
 Requested accuracy = 0.1000D-12
 ShPair: Thresh= 1.00D-13 NBox=     0 BxSize= 0.00D+00 RnKept= 1.19D+01
         NSMCal=                 2628 NSMKep=                2486
 PrmmSu-InSpLW:  IPartL=    0 NPrtUS=   48 NPrtUL=    1 DoSpLW=F IThBeg=    0 IThEnd=   47 NThAct=   48.
 PrsmSu:  NPrtUS=  48 ThrOK=T IAlg=1 NPAlg=1 LenDen=           0 ISkipM=0 DoSpLW=F IThBeg=    0 IThEnd=   47.
 Prism:   IPart=     0 DynPar=F LinDyn=F Incr=           6.
 PRISM was handed   536810527 working-precision words and  2486 shell-pairs
 PRISM was handed   536810527 working-precision words and  2486 shell-pairs
 PRISM was handed   536810527 working-precision words and  2486 shell-pairs
 PRISM was handed   536810527 working-precision words and  2486 shell-pairs
 PRISM was handed   536810527 working-precision words and  2486 shell-pairs
 PRISM was handed   536810527 working-precision words and  2486 shell-pairs
 PRISM was handed   536810527 working-precision words and  2486 shell-pairs
 PRISM was handed   536810527 working-precision words and  2486 shell-pairs
 PRISM was handed   536810527 working-precision words and  2486 shell-pairs
 PRISM was handed   536810527 working-precision words and  2486 shell-pairs
 PRISM was handed   536810527 working-precision words and  2486 shell-pairs
 PRISM was handed   536810527 working-precision words and  2486 shell-pairs
 PRISM was handed   536810527 working-precision words and  2486 shell-pairs
 PRISM was handed   536810527 working-precision words and  2486 shell-pairs
 PRISM was handed   536810527 working-precision words and  2486 shell-pairs
 PRISM was handed   536810527 working-precision words and  2486 shell-pairs
 PRISM was handed   536810527 working-precision words and  2486 shell-pairs
 PRISM was handed   536810527 working-precision words and  2486 shell-pairs
 PRISM was handed   536810527 working-precision words and  2486 shell-pairs
 PRISM was handed   536810527 working-precision words and  2486 shell-pairs
 PRISM was handed   536810527 working-precision words and  2486 shell-pairs
 PRISM was handed   536810527 working-precision words and  2486 shell-pairs
 PRISM was handed   536810527 working-precision words and  2486 shell-pairs
 PRISM was handed   536810527 working-precision words and  2486 shell-pairs
 PRISM was handed   536810527 working-precision words and  2486 shell-pairs
 PRISM was handed   536810527 working-precision words and  2486 shell-pairs
 PRISM was handed   536810527 working-precision words and  2486 shell-pairs
 PRISM was handed   536810527 working-precision words and  2486 shell-pairs
 PRISM was handed   536810527 working-precision words and  2486 shell-pairs
 PRISM was handed   536810527 working-precision words and  2486 shell-pairs
 PRISM was handed   536810527 working-precision words and  2486 shell-pairs
 PRISM was handed   536810527 working-precision words and  2486 shell-pairs
 PRISM was handed   536810527 working-precision words and  2486 shell-pairs
 PRISM was handed   536810527 working-precision words and  2486 shell-pairs
 PRISM was handed   536810527 working-precision words and  2486 shell-pairs
 PRISM was handed   536810527 working-precision words and  2486 shell-pairs
 PRISM was handed   536810527 working-precision words and  2486 shell-pairs
 PRISM was handed   536810527 working-precision words and  2486 shell-pairs
 PRISM was handed   536810527 working-precision words and  2486 shell-pairs
 PRISM was handed   536810527 working-precision words and  2486 shell-pairs
 PRISM was handed   536810527 working-precision words and  2486 shell-pairs
 PRISM was handed   536810527 working-precision words and  2486 shell-pairs
 PRISM was handed   536810527 working-precision words and  2486 shell-pairs
 PRISM was handed   536810527 working-precision words and  2486 shell-pairs
 PRISM was handed   536810527 working-precision words and  2486 shell-pairs
 PRISM was handed   536810527 working-precision words and  2486 shell-pairs
 PRISM was handed   536810527 working-precision words and  2486 shell-pairs
 PRISM was handed   536810527 working-precision words and  2486 shell-pairs
 IPart= 23 NShTot=         650 NBatch=          50 AvBLen=        13.0
 PrsmSu-ThDecC:  IPartSL=   23    0 NPrtUSL=   48    1 IThBeg=    0 IThEnd=   47 CPU=   -1 GPU=   -1 NThAct=   48.
 IPart= 26 NShTot=         637 NBatch=          49 AvBLen=        13.0
 PrsmSu-ThDecC:  IPartSL=   26    0 NPrtUSL=   48    1 IThBeg=    0 IThEnd=   47 CPU=   -1 GPU=   -1 NThAct=   47.
 IPart=  0 NShTot=        1105 NBatch=          85 AvBLen=        13.0
 PrsmSu-ThDecC:  IPartSL=    0    0 NPrtUSL=   48    1 IThBeg=    0 IThEnd=   47 CPU=   -1 GPU=   -1 NThAct=   46.
 IPart= 21 NShTot=         650 NBatch=          50 AvBLen=        13.0
 PrsmSu-ThDecC:  IPartSL=   21    0 NPrtUSL=   48    1 IThBeg=    0 IThEnd=   47 CPU=   -1 GPU=   -1 NThAct=   45.
 IPart= 14 NShTot=         715 NBatch=          55 AvBLen=        13.0
 PrsmSu-ThDecC:  IPartSL=   14    0 NPrtUSL=   48    1 IThBeg=    0 IThEnd=   47 CPU=   -1 GPU=   -1 NThAct=   44.
 IPart= 34 NShTot=         585 NBatch=          45 AvBLen=        13.0
 PrsmSu-ThDecC:  IPartSL=   34    0 NPrtUSL=   48    1 IThBeg=    0 IThEnd=   47 CPU=   -1 GPU=   -1 NThAct=   43.
 IPart= 30 NShTot=         585 NBatch=          45 AvBLen=        13.0
 PrsmSu-ThDecC:  IPartSL=   30    0 NPrtUSL=   48    1 IThBeg=    0 IThEnd=   47 CPU=   -1 GPU=   -1 NThAct=   42.
 IPart= 27 NShTot=         624 NBatch=          48 AvBLen=        13.0
 PrsmSu-ThDecC:  IPartSL=   27    0 NPrtUSL=   48    1 IThBeg=    0 IThEnd=   47 CPU=   -1 GPU=   -1 NThAct=   41.
 IPart= 31 NShTot=         585 NBatch=          45 AvBLen=        13.0
 PrsmSu-ThDecC:  IPartSL=   31    0 NPrtUSL=   48    1 IThBeg=    0 IThEnd=   47 CPU=   -1 GPU=   -1 NThAct=   40.
 IPart= 40 NShTot=         546 NBatch=          42 AvBLen=        13.0
 PrsmSu-ThDecC:  IPartSL=   40    0 NPrtUSL=   48    1 IThBeg=    0 IThEnd=   47 CPU=   -1 GPU=   -1 NThAct=   39.
 IPart= 20 NShTot=         663 NBatch=          51 AvBLen=        13.0
 PrsmSu-ThDecC:  IPartSL=   20    0 NPrtUSL=   48    1 IThBeg=    0 IThEnd=   47 CPU=   -1 GPU=   -1 NThAct=   38.
 IPart=  9 NShTot=         754 NBatch=          58 AvBLen=        13.0
 PrsmSu-ThDecC:  IPartSL=    9    0 NPrtUSL=   48    1 IThBeg=    0 IThEnd=   47 CPU=   -1 GPU=   -1 NThAct=   37.
 IPart= 43 NShTot=         507 NBatch=          39 AvBLen=        13.0
 IPart=  1 NShTot=        1092 NBatch=          84 AvBLen=        13.0
 PrsmSu-ThDecC:  IPartSL=   43    0 NPrtUSL=   48    1 IThBeg=    0 IThEnd=   47 CPU=   -1 GPU=   -1 NThAct=   36.
 PrsmSu-ThDecC:  IPartSL=    1    0 NPrtUSL=   48    1 IThBeg=    0 IThEnd=   47 CPU=   -1 GPU=   -1 NThAct=   35.
 IPart= 38 NShTot=         572 NBatch=          44 AvBLen=        13.0
 PrsmSu-ThDecC:  IPartSL=   38    0 NPrtUSL=   48    1 IThBeg=    0 IThEnd=   47 CPU=   -1 GPU=   -1 NThAct=   34.
 IPart= 45 NShTot=         494 NBatch=          38 AvBLen=        13.0
 PrsmSu-ThDecC:  IPartSL=   45    0 NPrtUSL=   48    1 IThBeg=    0 IThEnd=   47 CPU=   -1 GPU=   -1 NThAct=   33.
 IPart= 13 NShTot=         715 NBatch=          55 AvBLen=        13.0
 PrsmSu-ThDecC:  IPartSL=   13    0 NPrtUSL=   48    1 IThBeg=    0 IThEnd=   47 CPU=   -1 GPU=   -1 NThAct=   32.
 IPart= 44 NShTot=         494 NBatch=          38 AvBLen=        13.0
 PrsmSu-ThDecC:  IPartSL=   44    0 NPrtUSL=   48    1 IThBeg=    0 IThEnd=   47 CPU=   -1 GPU=   -1 NThAct=   31.
 IPart=  8 NShTot=         754 NBatch=          58 AvBLen=        13.0
 PrsmSu-ThDecC:  IPartSL=    8    0 NPrtUSL=   48    1 IThBeg=    0 IThEnd=   47 CPU=   -1 GPU=   -1 NThAct=   30.
 IPart= 42 NShTot=         533 NBatch=          41 AvBLen=        13.0
 PrsmSu-ThDecC:  IPartSL=   42    0 NPrtUSL=   48    1 IThBeg=    0 IThEnd=   47 CPU=   -1 GPU=   -1 NThAct=   29.
 IPart=  7 NShTot=         767 NBatch=          59 AvBLen=        13.0
 PrsmSu-ThDecC:  IPartSL=    7    0 NPrtUSL=   48    1 IThBeg=    0 IThEnd=   47 CPU=   -1 GPU=   -1 NThAct=   28.
 IPart=  2 NShTot=        1001 NBatch=          77 AvBLen=        13.0
 PrsmSu-ThDecC:  IPartSL=    2    0 NPrtUSL=   48    1 IThBeg=    0 IThEnd=   47 CPU=   -1 GPU=   -1 NThAct=   27.
 IPart= 36 NShTot=         585 NBatch=          45 AvBLen=        13.0
 PrsmSu-ThDecC:  IPartSL=   36    0 NPrtUSL=   48    1 IThBeg=    0 IThEnd=   47 CPU=   -1 GPU=   -1 NThAct=   26.
 IPart= 32 NShTot=         585 NBatch=          45 AvBLen=        13.0
 PrsmSu-ThDecC:  IPartSL=   32    0 NPrtUSL=   48    1 IThBeg=    0 IThEnd=   47 CPU=   -1 GPU=   -1 NThAct=   25.
 IPart=  4 NShTot=         910 NBatch=          70 AvBLen=        13.0
 PrsmSu-ThDecC:  IPartSL=    4    0 NPrtUSL=   48    1 IThBeg=    0 IThEnd=   47 CPU=   -1 GPU=   -1 NThAct=   24.
 IPart= 24 NShTot=         650 NBatch=          50 AvBLen=        13.0
 PrsmSu-ThDecC:  IPartSL=   24    0 NPrtUSL=   48    1 IThBeg=    0 IThEnd=   47 CPU=   -1 GPU=   -1 NThAct=   23.
 IPart= 39 NShTot=         559 NBatch=          43 AvBLen=        13.0
 PrsmSu-ThDecC:  IPartSL=   39    0 NPrtUSL=   48    1 IThBeg=    0 IThEnd=   47 CPU=   -1 GPU=   -1 NThAct=   22.
 IPart= 29 NShTot=         598 NBatch=          46 AvBLen=        13.0
 PrsmSu-ThDecC:  IPartSL=   29    0 NPrtUSL=   48    1 IThBeg=    0 IThEnd=   47 CPU=   -1 GPU=   -1 NThAct=   21.
 IPart= 41 NShTot=         533 NBatch=          41 AvBLen=        13.0
 PrsmSu-ThDecC:  IPartSL=   41    0 NPrtUSL=   48    1 IThBeg=    0 IThEnd=   47 CPU=   -1 GPU=   -1 NThAct=   20.
 IPart= 33 NShTot=         585 NBatch=          45 AvBLen=        13.0
 PrsmSu-ThDecC:  IPartSL=   33    0 NPrtUSL=   48    1 IThBeg=    0 IThEnd=   47 CPU=   -1 GPU=   -1 NThAct=   19.
 IPart= 28 NShTot=         598 NBatch=          46 AvBLen=        13.0
 PrsmSu-ThDecC:  IPartSL=   28    0 NPrtUSL=   48    1 IThBeg=    0 IThEnd=   47 CPU=   -1 GPU=   -1 NThAct=   18.
 IPart= 18 NShTot=         676 NBatch=          52 AvBLen=        13.0
 IPart= 10 NShTot=         728 NBatch=          56 AvBLen=        13.0
 PrsmSu-ThDecC:  IPartSL=   18    0 NPrtUSL=   48    1 IThBeg=    0 IThEnd=   47 CPU=   -1 GPU=   -1 NThAct=   17.
 PrsmSu-ThDecC:  IPartSL=   10    0 NPrtUSL=   48    1 IThBeg=    0 IThEnd=   47 CPU=   -1 GPU=   -1 NThAct=   16.
 IPart= 46 NShTot=         494 NBatch=          38 AvBLen=        13.0
 PrsmSu-ThDecC:  IPartSL=   46    0 NPrtUSL=   48    1 IThBeg=    0 IThEnd=   47 CPU=   -1 GPU=   -1 NThAct=   15.
 IPart= 17 NShTot=         676 NBatch=          52 AvBLen=        13.0
 IPart= 47 NShTot=         494 NBatch=          38 AvBLen=        13.0
 PrsmSu-ThDecC:  IPartSL=   17    0 NPrtUSL=   48    1 IThBeg=    0 IThEnd=   47 CPU=   -1 GPU=   -1 NThAct=   14.
 PrsmSu-ThDecC:  IPartSL=   47    0 NPrtUSL=   48    1 IThBeg=    0 IThEnd=   47 CPU=   -1 GPU=   -1 NThAct=   13.
 IPart=  6 NShTot=         832 NBatch=          64 AvBLen=        13.0
 PrsmSu-ThDecC:  IPartSL=    6    0 NPrtUSL=   48    1 IThBeg=    0 IThEnd=   47 CPU=   -1 GPU=   -1 NThAct=   12.
 IPart= 35 NShTot=         585 NBatch=          45 AvBLen=        13.0
 PrsmSu-ThDecC:  IPartSL=   35    0 NPrtUSL=   48    1 IThBeg=    0 IThEnd=   47 CPU=   -1 GPU=   -1 NThAct=   11.
 IPart= 37 NShTot=         585 NBatch=          45 AvBLen=        13.0
 PrsmSu-ThDecC:  IPartSL=   37    0 NPrtUSL=   48    1 IThBeg=    0 IThEnd=   47 CPU=   -1 GPU=   -1 NThAct=   10.
 IPart= 15 NShTot=         715 NBatch=          55 AvBLen=        13.0
 PrsmSu-ThDecC:  IPartSL=   15    0 NPrtUSL=   48    1 IThBeg=    0 IThEnd=   47 CPU=   -1 GPU=   -1 NThAct=    9.
 IPart= 19 NShTot=         676 NBatch=          52 AvBLen=        13.0
 PrsmSu-ThDecC:  IPartSL=   19    0 NPrtUSL=   48    1 IThBeg=    0 IThEnd=   47 CPU=   -1 GPU=   -1 NThAct=    8.
 IPart= 25 NShTot=         637 NBatch=          49 AvBLen=        13.0
 PrsmSu-ThDecC:  IPartSL=   25    0 NPrtUSL=   48    1 IThBeg=    0 IThEnd=   47 CPU=   -1 GPU=   -1 NThAct=    7.
 IPart= 22 NShTot=         650 NBatch=          50 AvBLen=        13.0
 PrsmSu-ThDecC:  IPartSL=   22    0 NPrtUSL=   48    1 IThBeg=    0 IThEnd=   47 CPU=   -1 GPU=   -1 NThAct=    6.
 IPart=  3 NShTot=         949 NBatch=          73 AvBLen=        13.0
 PrsmSu-ThDecC:  IPartSL=    3    0 NPrtUSL=   48    1 IThBeg=    0 IThEnd=   47 CPU=   -1 GPU=   -1 NThAct=    5.
 IPart= 11 NShTot=         728 NBatch=          56 AvBLen=        13.0
 IPart= 12 NShTot=         715 NBatch=          55 AvBLen=        13.0
 IPart= 16 NShTot=         676 NBatch=          52 AvBLen=        13.0
 IPart=  5 NShTot=         871 NBatch=          67 AvBLen=        13.0
 PrsmSu-ThDecC:  IPartSL=   11    0 NPrtUSL=   48    1 IThBeg=    0 IThEnd=   47 CPU=   -1 GPU=   -1 NThAct=    4.
 PrsmSu-ThDecC:  IPartSL=    5    0 NPrtUSL=   48    1 IThBeg=    0 IThEnd=   47 CPU=   -1 GPU=   -1 NThAct=    3.
 PrsmSu-ThDecC:  IPartSL=   16    0 NPrtUSL=   48    1 IThBeg=    0 IThEnd=   47 CPU=   -1 GPU=   -1 NThAct=    2.
 PrsmSu-ThDecC:  IPartSL=   12    0 NPrtUSL=   48    1 IThBeg=    0 IThEnd=   47 CPU=   -1 GPU=   -1 NThAct=    1.
 PrSmSu:  NxtVal=            289.
 --------------------------------------------------------
       Center         ----      EFG at Nuclei      ----
                      3XX-RR        3YY-RR        3ZZ-RR
 --------------------------------------------------------
     1   Atom       -0.265441      0.095217      0.170223
     2   Atom        0.113286      0.101554     -0.214840
     3   Atom        0.139208     -0.312748      0.173540
     4   Atom       -0.083440      0.260519     -0.177079
     5   Atom        0.117957     -0.289086      0.171129
     6   Atom       -0.325203     -0.192709      0.517912
     7   Atom       -0.062628      0.131556     -0.068929
     8   Atom        0.137299     -0.315497      0.178197
     9   Atom        0.710227     -0.192004     -0.518223
    10   Atom        0.163684      0.008071     -0.171754
    11   Atom       -0.083476     -0.089873      0.173349
    12   Atom        0.164441     -0.144061     -0.020380
    13   Atom       -0.009753     -0.172688      0.182441
 --------------------------------------------------------
                        XY            XZ            YZ
 --------------------------------------------------------
     1   Atom        0.143470      0.001313     -0.000668
     2   Atom        0.023375     -0.002583      0.000181
     3   Atom        0.064153      0.000564     -0.004006
     4   Atom        0.169639      0.001099      0.001643
     5   Atom        0.088551      0.000510     -0.001004
     6   Atom        0.027299      0.012081     -0.007916
     7   Atom       -0.183842      0.001983     -0.001629
     8   Atom        0.054910     -0.000618      0.004645
     9   Atom        0.473812      0.005304      0.004443
    10   Atom       -0.071695      0.001821     -0.002352
    11   Atom        0.235397     -0.004715      0.004207
    12   Atom        0.165816      0.003801     -0.001459
    13   Atom       -0.220021     -0.002368     -0.003433
 --------------------------------------------------------


 ---------------------------------------------------------------------------------
              Nuclear Quadrupole Coupling Constant in Principal Axis System
 ---------------------------------------------------------------------------------

       Atom             a.u.   MegaHertz   Gauss  10(-4) cm-1        Axes

              Baa    -0.3308     1.589     0.567     0.530  0.9807 -0.1948 -0.0158
     6 N(14)  Bbb    -0.1873     0.900     0.321     0.300  0.1949  0.9808  0.0077
              Bcc     0.5182    -2.489    -0.888    -0.830  0.0140 -0.0106  0.9998
 
              Baa    -0.5183     2.489     0.888     0.830  0.0021 -0.0167  0.9999
     9 N(14)  Bbb    -0.3951     1.897     0.677     0.633 -0.3940  0.9190  0.0162
              Bcc     0.9134    -4.387    -1.565    -1.463  0.9191  0.3940  0.0046
 

 ---------------------------------------------------------------------------------

 No NMR shielding tensors so no spin-rotation constants.
 Leave Link  601 at Thu Apr 21 16:29:47 2022, MaxMem= 25769803776 cpu:              12.5 elap:               0.3
 Calling FoFJK, ICntrl=      2127 FMM=F ISym2X=0 I1Cent= 0 IOpClX= 0 NMat=1 NMatS=1 NMatT=0.
 ***** Axes restored to original set *****
 -------------------------------------------------------------------
 Center     Atomic                   Forces (Hartrees/Bohr)
 Number     Number              X              Y              Z
 -------------------------------------------------------------------
      1        1           0.004633640    0.000110946    0.001358381
      2        6           0.005005399   -0.000092739    0.003341676
      3        1          -0.000120827    0.000389558    0.001174411
      4        6          -0.017651474    0.000513456    0.003140709
      5        1           0.004334059   -0.000063607   -0.000247352
      6        7           0.010570060   -0.003333029   -0.005844683
      7        6          -0.000183910    0.003291916    0.011880558
      8        1          -0.001541475    0.000254221   -0.001659883
      9        7          -0.010405969    0.001466549    0.009253540
     10        6          -0.002052169   -0.002880052   -0.014084150
     11        1          -0.002464403   -0.000161604    0.000692465
     12        6           0.007674285   -0.000164625   -0.012142160
     13        1           0.002202784    0.000669010    0.003136487
 -------------------------------------------------------------------
 Cartesian Forces:  Max     0.017651474 RMS     0.005885373

 GradGradGradGradGradGradGradGradGradGradGradGradGradGradGradGradGradGrad
 Berny optimization.
 FormGI is forming the generalized inverse of G from B-inverse, IUseBI=4.
 Internal  Forces:  Max     0.015851747 RMS     0.004377791
 Search for a local minimum.
 Step number   1 out of a maximum of   66
 All quantities printed in internal units (Hartrees-Bohrs-Radians)
 Mixed Optimization -- RFO/linear search
 Second derivative matrix not updated -- first step.
 ITU=  0
     Eigenvalues ---    0.01765   0.01898   0.02077   0.02184   0.02260
     Eigenvalues ---    0.02342   0.02352   0.02424   0.02876   0.02876
     Eigenvalues ---    0.15998   0.16000   0.16000   0.16000   0.16000
     Eigenvalues ---    0.16000   0.22000   0.22670   0.23409   0.25000
     Eigenvalues ---    0.35138   0.35152   0.35529   0.35711   0.35850
     Eigenvalues ---    0.35944   0.43412   0.45758   0.46550   0.49644
     Eigenvalues ---    0.50948   0.57093   0.60566
 RFO step:  Lambda=-3.56509943D-03 EMin= 1.76499506D-02
 Linear search not attempted -- first point.
 Iteration  1 RMS(Cart)=  0.04119287 RMS(Int)=  0.00063699
 Iteration  2 RMS(Cart)=  0.00088735 RMS(Int)=  0.00019575
 Iteration  3 RMS(Cart)=  0.00000015 RMS(Int)=  0.00019575
 Variable       Old X    -DE/DX   Delta X   Delta X   Delta X     New X
                                 (Linear)    (Quad)   (Total)
    R1        2.05429  -0.00442   0.00000  -0.01246  -0.01246   2.04183
    R2        2.04825  -0.00119   0.00000  -0.00333  -0.00333   2.04492
    R3        2.53318  -0.01044   0.00000  -0.01818  -0.01818   2.51500
    R4        2.05451  -0.00199   0.00000  -0.00559  -0.00559   2.04891
    R5        2.63516   0.00383   0.00000   0.00816   0.00816   2.64331
    R6        2.60857  -0.00131   0.00000  -0.00327  -0.00331   2.60526
    R7        2.60719   0.00891   0.00000   0.01829   0.01825   2.62544
    R8        2.04316  -0.00104   0.00000  -0.00287  -0.00287   2.04029
    R9        2.48496  -0.00638   0.00000  -0.01057  -0.01055   2.47441
   R10        2.58032   0.01352   0.00000   0.02609   0.02614   2.60646
   R11        2.04535  -0.00241   0.00000  -0.00669  -0.00669   2.03866
   R12        2.59565  -0.00658   0.00000  -0.01223  -0.01221   2.58344
   R13        2.04169  -0.00380   0.00000  -0.01047  -0.01047   2.03122
    A1        2.03658   0.00151   0.00000   0.00926   0.00924   2.04582
    A2        2.09719  -0.00245   0.00000  -0.01494  -0.01495   2.08224
    A3        2.14940   0.00094   0.00000   0.00574   0.00573   2.15513
    A4        2.07307   0.00490   0.00000   0.02845   0.02844   2.10152
    A5        2.21470  -0.00189   0.00000  -0.00846  -0.00847   2.20623
    A6        1.99539  -0.00301   0.00000  -0.01994  -0.01995   1.97544
    A7        2.25492  -0.01585   0.00000  -0.06291  -0.06280   2.19212
    A8        2.19471   0.00836   0.00000   0.03260   0.03268   2.22739
    A9        1.83355   0.00749   0.00000   0.03024   0.02994   1.86348
   A10        2.13324   0.00096   0.00000   0.00145   0.00150   2.13474
   A11        1.97016  -0.00598   0.00000  -0.02771  -0.02796   1.94219
   A12        2.17979   0.00502   0.00000   0.02628   0.02632   2.20611
   A13        1.83167   0.00474   0.00000   0.01933   0.01916   1.85083
   A14        2.11846   0.00143   0.00000   0.00607   0.00611   2.12458
   A15        1.93232  -0.00126   0.00000  -0.00229  -0.00242   1.92990
   A16        2.23240  -0.00018   0.00000  -0.00377  -0.00373   2.22867
   A17        1.85685  -0.00497   0.00000  -0.01854  -0.01885   1.83800
   A18        2.12747   0.00328   0.00000   0.01427   0.01425   2.14171
   A19        2.29880   0.00169   0.00000   0.00458   0.00454   2.30335
    D1        0.00059   0.00004   0.00000   0.00032   0.00026   0.00086
    D2        3.13451   0.00030   0.00000   0.01023   0.01029  -3.13839
    D3       -3.13366  -0.00029   0.00000  -0.01004  -0.01010   3.13943
    D4        0.00025  -0.00004   0.00000  -0.00012  -0.00006   0.00019
    D5       -3.14157  -0.00038   0.00000  -0.01566  -0.01558   3.12604
    D6        0.00519   0.00004   0.00000   0.00312   0.00317   0.00836
    D7       -0.00736  -0.00010   0.00000  -0.00594  -0.00598  -0.01335
    D8        3.13940   0.00032   0.00000   0.01284   0.01276  -3.13103
    D9        0.02107  -0.00019   0.00000  -0.00700  -0.00741   0.01366
   D10       -3.11924  -0.00068   0.00000  -0.02573  -0.02603   3.13791
   D11       -3.12486  -0.00053   0.00000  -0.02272  -0.02284   3.13548
   D12        0.01801  -0.00102   0.00000  -0.04145  -0.04147  -0.02346
   D13        3.11764   0.00066   0.00000   0.02930   0.02887  -3.13668
   D14       -0.01303  -0.00000   0.00000   0.00291   0.00260  -0.01043
   D15       -0.01981   0.00106   0.00000   0.04462   0.04503   0.02522
   D16        3.13271   0.00040   0.00000   0.01822   0.01876  -3.13172
   D17       -0.00819   0.00050   0.00000   0.01976   0.01950   0.01131
   D18        3.13473  -0.00001   0.00000   0.00047  -0.00004   3.13469
   D19        3.13775  -0.00001   0.00000   0.00074   0.00100   3.13875
   D20       -0.00517   0.00025   0.00000   0.01052   0.01063   0.00546
   D21        0.01613  -0.00096   0.00000  -0.03601  -0.03551  -0.01938
   D22       -3.13789  -0.00020   0.00000  -0.00594  -0.00572   3.13958
   D23       -3.12689  -0.00068   0.00000  -0.02542  -0.02516   3.13113
   D24        0.00228   0.00008   0.00000   0.00465   0.00464   0.00691
         Item               Value     Threshold  Converged?
 Maximum Force            0.015852     0.000450     NO 
 RMS     Force            0.004378     0.000300     NO 
 Maximum Displacement     0.128901     0.001800     NO 
 RMS     Displacement     0.041280     0.001200     NO 
 Predicted change in Energy=-1.820668D-03
 GradGradGradGradGradGradGradGradGradGradGradGradGradGradGradGradGradGrad

                          Input orientation:                          
 ---------------------------------------------------------------------
 Center     Atomic      Atomic             Coordinates (Angstroms)
 Number     Number       Type             X           Y           Z
 ---------------------------------------------------------------------
      1          1           0        0.987519   -0.589303   -1.785027
      2          6           0        2.052852   -0.679274   -1.941329
      3          1           0        2.391940   -0.846322   -2.955285
      4          6           0        2.874860   -0.578503   -0.899511
      5          1           0        2.480657   -0.408712    0.096154
      6          7           0        4.270446   -0.667411   -0.931485
      7          6           0        5.107655   -0.543205    0.156777
      8          1           0        4.734489   -0.373327    1.155569
      9          7           0        6.362653   -0.678894   -0.191213
     10          6           0        6.359936   -0.885275   -1.554959
     11          1           0        7.274606   -1.027053   -2.109142
     12          6           0        5.082302   -0.867340   -2.041051
     13          1           0        4.689286   -0.987982   -3.034199
 ---------------------------------------------------------------------
                    Distance matrix (angstroms):
                    1          2          3          4          5
     1  H    0.000000
     2  C    1.080490   0.000000
     3  H    1.846067   1.082124   0.000000
     4  C    2.084781   1.330878   2.128649   0.000000
     5  H    2.408509   2.099418   3.083934   1.084238   0.000000
     6  N    3.392970   2.436730   2.767049   1.398781   2.079978
     7  C    4.555025   3.708421   4.141487   2.470297   2.631137
     8  H    4.767969   4.107987   4.755037   2.779149   2.490656
     9  N    5.607168   4.651590   4.840938   3.560402   3.901982
    10  C    5.385480   4.329283   4.208018   3.559421   4.242887
    11  H    6.310637   5.236013   4.958734   4.584994   5.312967
    12  C    4.112190   3.036920   2.841534   2.501868   3.398020
    13  H    3.927144   2.870619   2.303062   2.831379   3.874623
                    6          7          8          9         10
     6  N    0.000000
     7  C    1.378644   0.000000
     8  H    2.158151   1.079675   0.000000
     9  N    2.219338   1.309400   2.134973   0.000000
    10  C    2.191382   2.148316   3.201739   1.379277   0.000000
    11  H    3.246721   3.172408   4.187827   2.152051   1.078815
    12  C    1.389324   2.221746   3.253214   2.257589   1.367097
    13  H    2.167856   3.248875   4.234856   3.313346   2.233779
                   11         12         13
    11  H    0.000000
    12  C    2.199168   0.000000
    13  H    2.746113   1.074877   0.000000
 Stoichiometry    C5H6N2
 Framework group  C1[X(C5H6N2)]
 Deg. of freedom    33
 Full point group                 C1      NOp   1
 Largest Abelian subgroup         C1      NOp   1
 Largest concise Abelian subgroup C1      NOp   1
                         Standard orientation:                         
 ---------------------------------------------------------------------
 Center     Atomic      Atomic             Coordinates (Angstroms)
 Number     Number       Type             X           Y           Z
 ---------------------------------------------------------------------
      1          1           0        3.600178   -0.034249   -0.003023
      2          6           0        2.587009    0.341169   -0.000014
      3          1           0        2.457269    1.415482   -0.003535
      4          6           0        1.572977   -0.520780    0.004421
      5          1           0        1.760459   -1.588685    0.005812
      6          7           0        0.211304   -0.200727    0.005065
      7          6           0       -0.826412   -1.108273   -0.007741
      8          1           0       -0.660151   -2.175069   -0.007220
      9          7           0       -1.987378   -0.502792    0.001144
     10          6           0       -1.712408    0.848791    0.005453
     11          1           0       -2.498456    1.587672    0.010274
     12          6           0       -0.362502    1.064500   -0.007921
     13          1           0        0.221242    1.967048   -0.010958
 ---------------------------------------------------------------------
 Rotational constants (GHZ):           8.2193823           2.1082762           1.6779260
 Standard basis: 6-311++G(d,p) (5D, 7F)
 There are   203 symmetry adapted cartesian basis functions of A   symmetry.
 There are   196 symmetry adapted basis functions of A   symmetry.
   196 basis functions,   306 primitive gaussians,   203 cartesian basis functions
    25 alpha electrons       25 beta electrons
       nuclear repulsion energy       275.1668075168 Hartrees.
 NAtoms=   13 NActive=   13 NUniq=   13 SFac= 1.00D+00 NAtFMM=   60 NAOKFM=F Big=F
 Integral buffers will be    131072 words long.
 Raffenetti 2 integral format.
 Two-electron integral symmetry is turned on.
 Nuclear repulsion after empirical dispersion term =      275.1472443545 Hartrees.
 One-electron integrals computed using PRISM.
 NBasis=   196 RedAO= T EigKep=  8.50D-06  NBF=   196
 NBsUse=   196 1.00D-06 EigRej= -1.00D+00 NBFU=   196
 Initial guess from the checkpoint file:  "1VI-2.chk"
 B after Tr=     0.000000   -0.000000    0.000000
         Rot=    0.999986    0.000091    0.000005   -0.005334 Ang=   0.61 deg.
 ExpMin= 3.60D-02 ExpMax= 6.29D+03 ExpMxC= 9.49D+02 IAcc=3 IRadAn=         5 AccDes= 0.00D+00
 Harris functional with IExCor=  402 and IRadAn=       5 diagonalized for initial guess.
 HarFok:  IExCor=  402 AccDes= 0.00D+00 IRadAn=         5 IDoV= 1 UseB2=F ITyADJ=14
 ICtDFT=  3500011 ScaDFX=  1.000000  1.000000  1.000000  1.000000
 FoFCou: FMM=F IPFlag=           0 FMFlag=      100000 FMFlg1=           0
         NFxFlg=           0 DoJE=T BraDBF=F KetDBF=T FulRan=T
         wScrn=  0.000000 ICntrl=       500 IOpCl=  0 I1Cent=   200000004 NGrid=           0
         NMat0=    1 NMatS0=      1 NMatT0=    0 NMatD0=    1 NMtDS0=    0 NMtDT0=    0
 Petite list used in FoFCou.
 Requested convergence on RMS density matrix=1.00D-08 within 128 cycles.
 Requested convergence on MAX density matrix=1.00D-06.
 Requested convergence on             energy=1.00D-06.
 No special actions if energy rises.
 SCF Done:  E(RB3LYP) =  -303.714315711     A.U. after   11 cycles
            NFock= 11  Conv=0.53D-08     -V/T= 2.0043
 Calling FoFJK, ICntrl=      2127 FMM=F ISym2X=0 I1Cent= 0 IOpClX= 0 NMat=1 NMatS=1 NMatT=0.
 ***** Axes restored to original set *****
 -------------------------------------------------------------------
 Center     Atomic                   Forces (Hartrees/Bohr)
 Number     Number              X              Y              Z
 -------------------------------------------------------------------
      1        1          -0.000383273   -0.000091911    0.000104060
      2        6          -0.000051098   -0.000053411   -0.000850388
      3        1           0.000461169   -0.000034240    0.000269366
      4        6          -0.004119954    0.001026106    0.002116635
      5        1           0.001326644   -0.000138270    0.000286770
      6        7          -0.002495215    0.002446372   -0.004502011
      7        6           0.003414051   -0.003570513   -0.005658280
      8        1          -0.000515952   -0.000001060   -0.000637090
      9        7           0.002737585    0.000910095    0.004237483
     10        6          -0.001008462    0.001450496   -0.000584440
     11        1           0.000169066    0.000249070    0.000750202
     12        6           0.001174221   -0.002078762    0.004201296
     13        1          -0.000708781   -0.000113971    0.000266398
 -------------------------------------------------------------------
 Cartesian Forces:  Max     0.005658280 RMS     0.002084455

 GradGradGradGradGradGradGradGradGradGradGradGradGradGradGradGradGradGrad
 Berny optimization.
 Using GEDIIS/GDIIS optimizer.
 FormGI is forming the generalized inverse of G from B-inverse, IUseBI=4.
 Internal  Forces:  Max     0.005088378 RMS     0.001504550
 Search for a local minimum.
 Step number   2 out of a maximum of   66
 All quantities printed in internal units (Hartrees-Bohrs-Radians)
 Mixed Optimization -- RFO/linear search
 Update second derivatives using D2CorX and points    1    2
 DE= -1.58D-03 DEPred=-1.82D-03 R= 8.69D-01
 TightC=F SS=  1.41D+00  RLast= 1.46D-01 DXNew= 5.0454D-01 4.3834D-01
 Trust test= 8.69D-01 RLast= 1.46D-01 DXMaxT set to 4.38D-01
 ITU=  1  0
 Use linear search instead of GDIIS.
     Eigenvalues ---    0.01765   0.01899   0.02179   0.02232   0.02316
     Eigenvalues ---    0.02354   0.02405   0.02430   0.02876   0.02880
     Eigenvalues ---    0.14534   0.15998   0.15998   0.16000   0.16000
     Eigenvalues ---    0.16129   0.20690   0.22104   0.22796   0.29909
     Eigenvalues ---    0.35119   0.35324   0.35525   0.35683   0.35832
     Eigenvalues ---    0.36016   0.43291   0.45888   0.46001   0.49884
     Eigenvalues ---    0.52844   0.57400   0.60254
 RFO step:  Lambda=-5.84968582D-04 EMin= 1.76505824D-02
 Quartic linear search produced a step of -0.10271.
 Iteration  1 RMS(Cart)=  0.02067721 RMS(Int)=  0.00023529
 Iteration  2 RMS(Cart)=  0.00027327 RMS(Int)=  0.00013866
 Iteration  3 RMS(Cart)=  0.00000003 RMS(Int)=  0.00013866
 Variable       Old X    -DE/DX   Delta X   Delta X   Delta X     New X
                                 (Linear)    (Quad)   (Total)
    R1        2.04183   0.00039   0.00128  -0.00246  -0.00118   2.04065
    R2        2.04492  -0.00010   0.00034  -0.00118  -0.00084   2.04408
    R3        2.51500   0.00037   0.00187  -0.00443  -0.00256   2.51243
    R4        2.04891  -0.00024   0.00057  -0.00216  -0.00158   2.04733
    R5        2.64331   0.00285  -0.00084   0.00774   0.00690   2.65021
    R6        2.60526   0.00024   0.00034  -0.00080  -0.00047   2.60479
    R7        2.62544  -0.00233  -0.00187   0.00073  -0.00119   2.62425
    R8        2.04029  -0.00041   0.00029  -0.00182  -0.00153   2.03876
    R9        2.47441  -0.00093   0.00108  -0.00436  -0.00323   2.47118
   R10        2.60646  -0.00015  -0.00268   0.00716   0.00451   2.61096
   R11        2.03866  -0.00027   0.00069  -0.00254  -0.00185   2.03681
   R12        2.58344   0.00143   0.00125  -0.00051   0.00071   2.58415
   R13        2.03122   0.00003   0.00108  -0.00283  -0.00175   2.02947
    A1        2.04582   0.00038  -0.00095   0.00467   0.00372   2.04954
    A2        2.08224   0.00032   0.00154  -0.00238  -0.00084   2.08139
    A3        2.15513  -0.00069  -0.00059  -0.00229  -0.00288   2.15225
    A4        2.10152   0.00153  -0.00292   0.01620   0.01328   2.11479
    A5        2.20623  -0.00032   0.00087  -0.00364  -0.00277   2.20346
    A6        1.97544  -0.00121   0.00205  -0.01256  -0.01051   1.96493
    A7        2.19212  -0.00124   0.00645  -0.02108  -0.01461   2.17751
    A8        2.22739   0.00472  -0.00336   0.02669   0.02334   2.25073
    A9        1.86348  -0.00347  -0.00307  -0.00522  -0.00854   1.85494
   A10        2.13474  -0.00326  -0.00015  -0.01304  -0.01327   2.12147
   A11        1.94219   0.00509   0.00287   0.01153   0.01420   1.95639
   A12        2.20611  -0.00181  -0.00270   0.00194  -0.00084   2.20526
   A13        1.85083  -0.00401  -0.00197  -0.00967  -0.01171   1.83912
   A14        2.12458  -0.00124  -0.00063  -0.00472  -0.00532   2.11926
   A15        1.92990   0.00097   0.00025   0.00379   0.00388   1.93379
   A16        2.22867   0.00027   0.00038   0.00104   0.00145   2.23012
   A17        1.83800   0.00145   0.00194   0.00070   0.00235   1.84035
   A18        2.14171  -0.00147  -0.00146  -0.00305  -0.00451   2.13720
   A19        2.30335   0.00004  -0.00047   0.00271   0.00224   2.30559
    D1        0.00086  -0.00004  -0.00003  -0.00060  -0.00061   0.00024
    D2       -3.13839  -0.00019  -0.00106  -0.00340  -0.00448   3.14032
    D3        3.13943   0.00011   0.00104   0.00109   0.00215   3.14158
    D4        0.00019  -0.00004   0.00001  -0.00171  -0.00172  -0.00153
    D5        3.12604   0.00042   0.00160   0.01381   0.01541   3.14145
    D6        0.00836  -0.00023  -0.00033  -0.00991  -0.01027  -0.00192
    D7       -0.01335   0.00027   0.00061   0.01115   0.01180  -0.00154
    D8       -3.13103  -0.00038  -0.00131  -0.01257  -0.01388   3.13827
    D9        0.01366  -0.00026   0.00076  -0.01014  -0.00900   0.00467
   D10        3.13791   0.00051   0.00267   0.01571   0.01884  -3.12643
   D11        3.13548   0.00037   0.00235   0.00991   0.01222  -3.13549
   D12       -0.02346   0.00114   0.00426   0.03576   0.04006   0.01660
   D13       -3.13668  -0.00073  -0.00297  -0.01879  -0.02129   3.12522
   D14       -0.01043   0.00002  -0.00027   0.00313   0.00313  -0.00730
   D15        0.02522  -0.00129  -0.00462  -0.03865  -0.04312  -0.01790
   D16       -3.13172  -0.00053  -0.00193  -0.01674  -0.01869   3.13278
   D17        0.01131  -0.00053  -0.00200  -0.01714  -0.01917  -0.00786
   D18        3.13469   0.00026   0.00000   0.00982   0.01014  -3.13835
   D19        3.13875   0.00007  -0.00010   0.00479   0.00467  -3.13976
   D20        0.00546  -0.00028  -0.00109  -0.00843  -0.00961  -0.00415
   D21       -0.01938   0.00093   0.00365   0.02966   0.03339   0.01401
   D22        3.13958   0.00010   0.00059   0.00493   0.00569  -3.13791
   D23        3.13113   0.00057   0.00258   0.01548   0.01801  -3.13404
   D24        0.00691  -0.00027  -0.00048  -0.00925  -0.00969  -0.00278
         Item               Value     Threshold  Converged?
 Maximum Force            0.005088     0.000450     NO 
 RMS     Force            0.001505     0.000300     NO 
 Maximum Displacement     0.058789     0.001800     NO 
 RMS     Displacement     0.020626     0.001200     NO 
 Predicted change in Energy=-3.167559D-04
 GradGradGradGradGradGradGradGradGradGradGradGradGradGradGradGradGradGrad

                          Input orientation:                          
 ---------------------------------------------------------------------
 Center     Atomic      Atomic             Coordinates (Angstroms)
 Number     Number       Type             X           Y           Z
 ---------------------------------------------------------------------
      1          1           0        0.978056   -0.579325   -1.768799
      2          6           0        2.041082   -0.671545   -1.934884
      3          1           0        2.373839   -0.842997   -2.949730
      4          6           0        2.871313   -0.571020   -0.901326
      5          1           0        2.499740   -0.398844    0.101692
      6          7           0        4.269574   -0.668344   -0.948331
      7          6           0        5.102197   -0.558937    0.144715
      8          1           0        4.712590   -0.390054    1.136501
      9          7           0        6.362897   -0.670851   -0.184174
     10          6           0        6.368342   -0.872955   -1.550964
     11          1           0        7.289076   -1.001464   -2.096368
     12          6           0        5.093221   -0.887171   -2.044774
     13          1           0        4.707272   -1.019092   -3.038258
 ---------------------------------------------------------------------
                    Distance matrix (angstroms):
                    1          2          3          4          5
     1  H    0.000000
     2  C    1.079867   0.000000
     3  H    1.847249   1.081682   0.000000
     4  C    2.082547   1.329522   2.125420   0.000000
     5  H    2.418023   2.105320   3.086146   1.083400   0.000000
     6  N    3.393403   2.437103   2.762229   1.402432   2.075449
     7  C    4.546481   3.702409   4.135240   2.463978   2.607731
     8  H    4.735329   4.080391   4.729925   2.752415   2.442869
     9  N    5.613905   4.662946   4.857006   3.565870   3.883257
    10  C    5.402671   4.348924   4.232434   3.569651   4.233454
    11  H    6.333599   5.260833   4.991281   4.596742   5.303994
    12  C    4.135881   3.061718   2.866344   2.518789   3.401753
    13  H    3.963833   2.906336   2.341741   2.852716   3.888083
                    6          7          8          9         10
     6  N    0.000000
     7  C    1.378397   0.000000
     8  H    2.149472   1.078867   0.000000
     9  N    2.228439   1.307692   2.132262   0.000000
    10  C    2.193139   2.139406   3.193302   1.381662   0.000000
    11  H    3.247514   3.162392   4.178940   2.150255   1.077836
    12  C    1.388692   2.213974   3.242301   2.262897   1.367474
    13  H    2.163885   3.240220   4.221887   3.317855   2.234402
                   11         12         13
    11  H    0.000000
    12  C    2.199433   0.000000
    13  H    2.748305   1.073950   0.000000
 Stoichiometry    C5H6N2
 Framework group  C1[X(C5H6N2)]
 Deg. of freedom    33
 Full point group                 C1      NOp   1
 Largest Abelian subgroup         C1      NOp   1
 Largest concise Abelian subgroup C1      NOp   1
                         Standard orientation:                         
 ---------------------------------------------------------------------
 Center     Atomic      Atomic             Coordinates (Angstroms)
 Number     Number       Type             X           Y           Z
 ---------------------------------------------------------------------
      1          1           0        3.605983   -0.042375   -0.008444
      2          6           0        2.595644    0.338828   -0.004870
      3          1           0        2.468348    1.412993   -0.003922
      4          6           0        1.578270   -0.517076   -0.002155
      5          1           0        1.745969   -1.587418   -0.003243
      6          7           0        0.215621   -0.185465    0.003970
      7          6           0       -0.815768   -1.099909    0.006481
      8          1           0       -0.628253   -2.162354    0.008073
      9          7           0       -1.987597   -0.519636   -0.006080
     10          6           0       -1.724677    0.836779   -0.006939
     11          1           0       -2.520652    1.563481   -0.014609
     12          6           0       -0.377391    1.070226    0.010580
     13          1           0        0.195970    1.978283    0.018331
 ---------------------------------------------------------------------
 Rotational constants (GHZ):           8.2627269           2.0967811           1.6724359
 Standard basis: 6-311++G(d,p) (5D, 7F)
 There are   203 symmetry adapted cartesian basis functions of A   symmetry.
 There are   196 symmetry adapted basis functions of A   symmetry.
   196 basis functions,   306 primitive gaussians,   203 cartesian basis functions
    25 alpha electrons       25 beta electrons
       nuclear repulsion energy       275.0215583027 Hartrees.
 NAtoms=   13 NActive=   13 NUniq=   13 SFac= 1.00D+00 NAtFMM=   60 NAOKFM=F Big=F
 Integral buffers will be    131072 words long.
 Raffenetti 2 integral format.
 Two-electron integral symmetry is turned on.
 Nuclear repulsion after empirical dispersion term =      275.0020551262 Hartrees.
 One-electron integrals computed using PRISM.
 NBasis=   196 RedAO= T EigKep=  8.52D-06  NBF=   196
 NBsUse=   196 1.00D-06 EigRej= -1.00D+00 NBFU=   196
 Initial guess from the checkpoint file:  "1VI-2.chk"
 B after Tr=     0.000000    0.000000   -0.000000
         Rot=    0.999998    0.000028    0.000001   -0.002008 Ang=   0.23 deg.
 ExpMin= 3.60D-02 ExpMax= 6.29D+03 ExpMxC= 9.49D+02 IAcc=3 IRadAn=         5 AccDes= 0.00D+00
 Harris functional with IExCor=  402 and IRadAn=       5 diagonalized for initial guess.
 HarFok:  IExCor=  402 AccDes= 0.00D+00 IRadAn=         5 IDoV= 1 UseB2=F ITyADJ=14
 ICtDFT=  3500011 ScaDFX=  1.000000  1.000000  1.000000  1.000000
 FoFCou: FMM=F IPFlag=           0 FMFlag=      100000 FMFlg1=           0
         NFxFlg=           0 DoJE=T BraDBF=F KetDBF=T FulRan=T
         wScrn=  0.000000 ICntrl=       500 IOpCl=  0 I1Cent=   200000004 NGrid=           0
         NMat0=    1 NMatS0=      1 NMatT0=    0 NMatD0=    1 NMtDS0=    0 NMtDT0=    0
 Petite list used in FoFCou.
 Requested convergence on RMS density matrix=1.00D-08 within 128 cycles.
 Requested convergence on MAX density matrix=1.00D-06.
 Requested convergence on             energy=1.00D-06.
 No special actions if energy rises.
 SCF Done:  E(RB3LYP) =  -303.714554622     A.U. after   10 cycles
            NFock= 10  Conv=0.53D-08     -V/T= 2.0043
 Calling FoFJK, ICntrl=      2127 FMM=F ISym2X=0 I1Cent= 0 IOpClX= 0 NMat=1 NMatS=1 NMatT=0.
 ***** Axes restored to original set *****
 -------------------------------------------------------------------
 Center     Atomic                   Forces (Hartrees/Bohr)
 Number     Number              X              Y              Z
 -------------------------------------------------------------------
      1        1          -0.000860629    0.000079728   -0.000143445
      2        6          -0.000525376   -0.000037729   -0.000841006
      3        1           0.000443714   -0.000048155   -0.000098444
      4        6           0.000568419   -0.000439570    0.001007453
      5        1           0.000147446    0.000065869    0.000211664
      6        7          -0.000799327   -0.001912842   -0.000891501
      7        6           0.000685423    0.001509510   -0.001313501
      8        1          -0.000189829    0.000118555    0.000449245
      9        7           0.000437712   -0.000367366    0.000210527
     10        6          -0.000119372   -0.001105810   -0.000120348
     11        1           0.000478135   -0.000177361   -0.000038617
     12        6           0.000233156    0.002191121    0.002355237
     13        1          -0.000499473    0.000124051   -0.000787263
 -------------------------------------------------------------------
 Cartesian Forces:  Max     0.002355237 RMS     0.000825131

 GradGradGradGradGradGradGradGradGradGradGradGradGradGradGradGradGradGrad
 Berny optimization.
 Using GEDIIS/GDIIS optimizer.
 FormGI is forming the generalized inverse of G from B-inverse, IUseBI=4.
 Internal  Forces:  Max     0.001430427 RMS     0.000495448
 Search for a local minimum.
 Step number   3 out of a maximum of   66
 All quantities printed in internal units (Hartrees-Bohrs-Radians)
 Mixed Optimization -- En-DIIS/RFO-DIIS
 Update second derivatives using D2CorX and points    1    2    3
 DE= -2.39D-04 DEPred=-3.17D-04 R= 7.54D-01
 TightC=F SS=  1.41D+00  RLast= 9.78D-02 DXNew= 7.3720D-01 2.9326D-01
 Trust test= 7.54D-01 RLast= 9.78D-02 DXMaxT set to 4.38D-01
 ITU=  1  1  0
 Use linear search instead of GDIIS.
     Eigenvalues ---    0.01765   0.01891   0.02185   0.02243   0.02345
     Eigenvalues ---    0.02362   0.02414   0.02872   0.02876   0.03546
     Eigenvalues ---    0.12567   0.15999   0.15999   0.16000   0.16043
     Eigenvalues ---    0.16221   0.19791   0.22485   0.23104   0.28863
     Eigenvalues ---    0.35122   0.35340   0.35541   0.35735   0.35895
     Eigenvalues ---    0.36377   0.43225   0.45499   0.46104   0.49799
     Eigenvalues ---    0.52801   0.58231   0.60285
 RFO step:  Lambda=-1.10253326D-04 EMin= 1.76505890D-02
 Quartic linear search produced a step of -0.19208.
 Iteration  1 RMS(Cart)=  0.00989851 RMS(Int)=  0.00006675
 Iteration  2 RMS(Cart)=  0.00007924 RMS(Int)=  0.00003497
 Iteration  3 RMS(Cart)=  0.00000000 RMS(Int)=  0.00003497
 Variable       Old X    -DE/DX   Delta X   Delta X   Delta X     New X
                                 (Linear)    (Quad)   (Total)
    R1        2.04065   0.00083   0.00023   0.00146   0.00169   2.04234
    R2        2.04408   0.00024   0.00016   0.00021   0.00037   2.04446
    R3        2.51243   0.00143   0.00049   0.00106   0.00155   2.51399
    R4        2.04733   0.00016   0.00030  -0.00024   0.00006   2.04739
    R5        2.65021   0.00020  -0.00133   0.00299   0.00166   2.65187
    R6        2.60479   0.00029   0.00009   0.00029   0.00038   2.60517
    R7        2.62425  -0.00104   0.00023  -0.00230  -0.00208   2.62217
    R8        2.03876   0.00050   0.00029   0.00052   0.00081   2.03957
    R9        2.47118   0.00031   0.00062  -0.00075  -0.00013   2.47105
   R10        2.61096  -0.00020  -0.00087   0.00137   0.00052   2.61148
   R11        2.03681   0.00045   0.00036   0.00030   0.00066   2.03747
   R12        2.58415   0.00022  -0.00014   0.00064   0.00051   2.58466
   R13        2.02947   0.00089   0.00034   0.00132   0.00166   2.03113
    A1        2.04954   0.00008  -0.00071   0.00181   0.00109   2.05063
    A2        2.08139   0.00063   0.00016   0.00286   0.00302   2.08442
    A3        2.15225  -0.00072   0.00055  -0.00467  -0.00412   2.14813
    A4        2.11479   0.00054  -0.00255   0.00723   0.00468   2.11947
    A5        2.20346  -0.00064   0.00053  -0.00332  -0.00278   2.20068
    A6        1.96493   0.00010   0.00202  -0.00391  -0.00190   1.96303
    A7        2.17751   0.00062   0.00281  -0.00333  -0.00049   2.17701
    A8        2.25073   0.00007  -0.00448   0.00923   0.00477   2.25550
    A9        1.85494  -0.00069   0.00164  -0.00589  -0.00430   1.85065
   A10        2.12147  -0.00027   0.00255  -0.00620  -0.00364   2.11783
   A11        1.95639   0.00053  -0.00273   0.00764   0.00487   1.96126
   A12        2.20526  -0.00025   0.00016  -0.00135  -0.00118   2.20408
   A13        1.83912  -0.00037   0.00225  -0.00547  -0.00325   1.83587
   A14        2.11926  -0.00004   0.00102  -0.00248  -0.00145   2.11781
   A15        1.93379  -0.00032  -0.00075   0.00035  -0.00042   1.93336
   A16        2.23012   0.00036  -0.00028   0.00216   0.00189   2.23201
   A17        1.84035   0.00087  -0.00045   0.00376   0.00325   1.84360
   A18        2.13720  -0.00064   0.00087  -0.00419  -0.00332   2.13388
   A19        2.30559  -0.00022  -0.00043   0.00054   0.00010   2.30569
    D1        0.00024  -0.00000   0.00012  -0.00057  -0.00045  -0.00021
    D2        3.14032   0.00008   0.00086   0.00075   0.00161  -3.14125
    D3        3.14158  -0.00004  -0.00041  -0.00042  -0.00084   3.14074
    D4       -0.00153   0.00005   0.00033   0.00089   0.00123  -0.00030
    D5        3.14145  -0.00027  -0.00296  -0.00413  -0.00709   3.13436
    D6       -0.00192   0.00015   0.00197   0.00160   0.00358   0.00166
    D7       -0.00154  -0.00019  -0.00227  -0.00290  -0.00518  -0.00673
    D8        3.13827   0.00023   0.00267   0.00282   0.00549  -3.13942
    D9        0.00467   0.00003   0.00173  -0.00289  -0.00126   0.00341
   D10       -3.12643  -0.00054  -0.00362  -0.01233  -0.01606   3.14069
   D11       -3.13549  -0.00030  -0.00235  -0.00754  -0.00987   3.13783
   D12        0.01660  -0.00088  -0.00769  -0.01698  -0.02467  -0.00807
   D13        3.12522   0.00059   0.00409   0.01341   0.01739  -3.14058
[...]
 9038 Fit       0.005168
 9039 Fit       0.006166
 9040 Fit       0.007658
 9041 Fit       0.009949
 9042 Fit       0.013517
 9043 Fit       0.019030
 9044 Fit       0.018966
 9045 Fit       0.013472
 9046 Fit       0.009918
 9047 Fit       0.007638
 9048 Fit       0.006153
 9049 Fit       0.005159
 9050 Fit       0.005963
 9051 Fit       0.007333
 9052 Fit       0.009397
 9053 Fit       0.012531
 9054 Fit       0.017215
 9055 Fit       0.017155
 9056 Fit       0.012486
 9057 Fit       0.009364
 9058 Fit       0.007309
 9059 Fit       0.005946
 9060 Fit       0.005839
 9061 Fit       0.007069
 9062 Fit       0.008845
 9063 Fit       0.011401
 9064 Fit       0.014969
 9065 Fit       0.019560
 9066 Fit       0.019504
 9067 Fit       0.014918
 9068 Fit       0.011359
 9069 Fit       0.008811
 9070 Fit       0.007043
 9071 Fit       0.005820
 9072 Fit       0.005802
 9073 Fit       0.006902
 9074 Fit       0.008405
 9075 Fit       0.010425
 9076 Fit       0.013021
 9077 Fit       0.016054
 9078 Fit       0.018995
 9079 Fit       0.020892
 9080 Fit       0.020879
 9081 Fit       0.018962
 9082 Fit       0.016011
 9083 Fit       0.012978
 9084 Fit       0.010387
 9085 Fit       0.008372
 9086 Fit       0.006876
 9087 Fit       0.005782
 9088 Fit       0.006836
 9089 Fit       0.008120
 9090 Fit       0.009732
 9091 Fit       0.011646
 9092 Fit       0.013695
 9093 Fit       0.015520
 9094 Fit       0.016622
 9095 Fit       0.016613
 9096 Fit       0.015496
 9097 Fit       0.013662
 9098 Fit       0.011609
 9099 Fit       0.009697
 9100 Fit       0.008089
 9101 Fit       0.006810
 9102 Fit       0.006843
 9103 Fit       0.007966
 9104 Fit       0.009296
 9105 Fit       0.010775
 9106 Fit       0.012257
 9107 Fit       0.013497
 9108 Fit       0.014213
 9109 Fit       0.014206
 9110 Fit       0.013477
 9111 Fit       0.012229
 9112 Fit       0.010743
 9113 Fit       0.009264
 9114 Fit       0.007937
 9115 Fit       0.006818
 9116 Fit       0.007886
 9117 Fit       0.009022
 9118 Fit       0.010225
 9119 Fit       0.011375
 9120 Fit       0.012298
 9121 Fit       0.012816
 9122 Fit       0.012811
 9123 Fit       0.012282
 9124 Fit       0.011351
 9125 Fit       0.010197
 9126 Fit       0.008994
 9127 Fit       0.007860
 9128 Fit       0.008812
 9129 Fit       0.009827
 9130 Fit       0.010764
 9131 Fit       0.011497
 9132 Fit       0.011900
 9133 Fit       0.011895
 9134 Fit       0.011483
 9135 Fit       0.010744
 9136 Fit       0.009803
 9137 Fit       0.008787
 9138 Fit       0.009465
 9139 Fit       0.010249
 9140 Fit       0.010849
 9141 Fit       0.011175
 9142 Fit       0.011171
 9143 Fit       0.010838
 9144 Fit       0.010232
 9145 Fit       0.009445
 9146 Fit       0.009741
 9147 Fit       0.010238
 9148 Fit       0.010505
 9149 Fit       0.010501
 9150 Fit       0.010229
 9151 Fit       0.009728
 9152 Fit       0.012276
 9153 Fit       0.012602
 9154 Fit       0.012603
 9155 Fit       0.012278
 9156 Fit       0.011586
 9157 Fit       0.012600
 9158 Fit       0.013382
 9159 Fit       0.013811
 9160 Fit       0.013812
 9161 Fit       0.013383
 9162 Fit       0.012602
 9163 Fit       0.011590
 9164 Fit       0.009662
 9165 Fit       0.011003
 9166 Fit       0.012398
 9167 Fit       0.013713
 9168 Fit       0.014760
 9169 Fit       0.015347
 9170 Fit       0.015346
 9171 Fit       0.014759
 9172 Fit       0.013713
 9173 Fit       0.012399
 9174 Fit       0.011005
 9175 Fit       0.009666
 9176 Fit       0.009951
 9177 Fit       0.011568
 9178 Fit       0.013333
 9179 Fit       0.015076
 9180 Fit       0.016521
 9181 Fit       0.017353
 9182 Fit       0.017351
 9183 Fit       0.016517
 9184 Fit       0.015071
 9185 Fit       0.013329
 9186 Fit       0.011566
 9187 Fit       0.009951
 9188 Fit       0.008606
 9189 Fit       0.010202
 9190 Fit       0.012143
 9191 Fit       0.014379
 9192 Fit       0.016710
 9193 Fit       0.018740
 9194 Fit       0.019948
 9195 Fit       0.019945
 9196 Fit       0.018730
 9197 Fit       0.016699
 9198 Fit       0.014369
 9199 Fit       0.012136
 9200 Fit       0.010198
 9201 Fit       0.008605
 9202 Fit       0.007224
 9203 Fit       0.008593
 9204 Fit       0.010378
 9205 Fit       0.012660
 9206 Fit       0.015437
 9207 Fit       0.018504
 9208 Fit       0.021321
 9209 Fit       0.023065
 9210 Fit       0.023059
 9211 Fit       0.021305
 9212 Fit       0.018484
 9213 Fit       0.015419
 9214 Fit       0.012646
 9215 Fit       0.010369
 9216 Fit       0.008588
 9217 Fit       0.007222
 9218 Fit       0.007072
 9219 Fit       0.008500
 9220 Fit       0.010429
 9221 Fit       0.012998
 9222 Fit       0.016278
 9223 Fit       0.020096
 9224 Fit       0.023783
 9225 Fit       0.026152
 9226 Fit       0.026141
 9227 Fit       0.023758
 9228 Fit       0.020066
 9229 Fit       0.016251
 9230 Fit       0.012977
 9231 Fit       0.010414
 9232 Fit       0.008491
 9233 Fit       0.007066
 9234 Fit       0.006886
 9235 Fit       0.008322
 9236 Fit       0.010304
 9237 Fit       0.013014
 9238 Fit       0.016583
 9239 Fit       0.020885
 9240 Fit       0.025185
 9241 Fit       0.028019
 9242 Fit       0.028005
 9243 Fit       0.025152
 9244 Fit       0.020846
 9245 Fit       0.016548
 9246 Fit       0.012987
 9247 Fit       0.010284
 9248 Fit       0.008309
 9249 Fit       0.006877
 9250 Fit       0.006684
 9251 Fit       0.008070
 9252 Fit       0.009991
 9253 Fit       0.012630
 9254 Fit       0.016127
 9255 Fit       0.020373
 9256 Fit       0.024647
 9257 Fit       0.024612
 9258 Fit       0.020331
 9259 Fit       0.016089
 9260 Fit       0.012600
 9261 Fit       0.009968
 9262 Fit       0.008053
 9263 Fit       0.006672
 9264 Fit       0.006488
 9265 Fit       0.007777
 9266 Fit       0.009538
 9267 Fit       0.011913
 9268 Fit       0.014993
 9269 Fit       0.018644
 9270 Fit       0.022237
 9271 Fit       0.024578
 9272 Fit       0.024566
 9273 Fit       0.022206
 9274 Fit       0.018606
 9275 Fit       0.014956
 9276 Fit       0.011881
 9277 Fit       0.009513
 9278 Fit       0.007758
 9279 Fit       0.006473
 9280 Fit       0.006322
 9281 Fit       0.007489
 9282 Fit       0.009035
 9283 Fit       0.011045
 9284 Fit       0.013541
 9285 Fit       0.016359
 9286 Fit       0.019007
 9287 Fit       0.020673
 9288 Fit       0.020663
 9289 Fit       0.018981
 9290 Fit       0.016326
 9291 Fit       0.013507
 9292 Fit       0.011015
 9293 Fit       0.009010
 9294 Fit       0.007469
 9295 Fit       0.006306
 9296 Fit       0.007244
 9297 Fit       0.008572
 9298 Fit       0.010219
 9299 Fit       0.012153
 9300 Fit       0.014211
 9301 Fit       0.016038
 9302 Fit       0.017140
 9303 Fit       0.017133
 9304 Fit       0.016018
 9305 Fit       0.014183
 9306 Fit       0.012123
 9307 Fit       0.010190
 9308 Fit       0.008547
 9309 Fit       0.007223
 9310 Fit       0.007060
 9311 Fit       0.008199
 9312 Fit       0.009542
 9313 Fit       0.011036
 9314 Fit       0.012536
 9315 Fit       0.013797
 9316 Fit       0.014529
 9317 Fit       0.014523
 9318 Fit       0.013781
 9319 Fit       0.012513
 9320 Fit       0.011010
 9321 Fit       0.009517
 9322 Fit       0.008175
 9323 Fit       0.007039
 9324 Fit       0.007918
 9325 Fit       0.009034
 9326 Fit       0.010214
 9327 Fit       0.011344
 9328 Fit       0.012254
 9329 Fit       0.012766
 9330 Fit       0.012761
 9331 Fit       0.012240
 9332 Fit       0.011324
 9333 Fit       0.010191
 9334 Fit       0.009010
 9335 Fit       0.007896
 9336 Fit       0.008653
 9337 Fit       0.009617
 9338 Fit       0.010507
 9339 Fit       0.011201
 9340 Fit       0.011583
 9341 Fit       0.011579
 9342 Fit       0.011189
 9343 Fit       0.010490
 9344 Fit       0.009597
 9345 Fit       0.008631
 9346 Fit       0.009882
 9347 Fit       0.010436
 9348 Fit       0.010737
 9349 Fit       0.010733
 9350 Fit       0.010427
 9351 Fit       0.009867
 9352 Fit       0.010063
 9353 Fit       0.010060
 9354 Fit       0.011410
 9355 Fit       0.012012
 9356 Fit       0.012338
 9357 Fit       0.012338
 9358 Fit       0.012012
 9359 Fit       0.011411
 9360 Fit       0.010204
 9361 Fit       0.011299
 9362 Fit       0.012297
 9363 Fit       0.013071
 9364 Fit       0.013497
 9365 Fit       0.013497
 9366 Fit       0.013070
 9367 Fit       0.012296
 9368 Fit       0.011299
 9369 Fit       0.010206
 9370 Fit       0.009412
 9371 Fit       0.010699
 9372 Fit       0.012039
 9373 Fit       0.013304
 9374 Fit       0.014314
 9375 Fit       0.014879
 9376 Fit       0.014878
 9377 Fit       0.014311
 9378 Fit       0.013301
 9379 Fit       0.012036
 9380 Fit       0.010697
 9381 Fit       0.009412
 9382 Fit       0.009668
 9383 Fit       0.011175
 9384 Fit       0.012805
 9385 Fit       0.014402
 9386 Fit       0.015717
 9387 Fit       0.016470
 9388 Fit       0.016468
 9389 Fit       0.015711
 9390 Fit       0.014394
 9391 Fit       0.012798
 9392 Fit       0.011169
 9393 Fit       0.009665
 9394 Fit       0.008404
 9395 Fit       0.009852
 9396 Fit       0.011575
 9397 Fit       0.013511
 9398 Fit       0.015477
 9399 Fit       0.017150
 9400 Fit       0.018130
 9401 Fit       0.018126
 9402 Fit       0.017141
 9403 Fit       0.015465
 9404 Fit       0.013498
 9405 Fit       0.011565
 9406 Fit       0.009845
 9407 Fit       0.008399
 9408 Fit       0.008375
 9409 Fit       0.009924
 9410 Fit       0.011818
 9411 Fit       0.014013
 9412 Fit       0.016315
 9413 Fit       0.018329
 9414 Fit       0.019533
 9415 Fit       0.019528
 9416 Fit       0.018316
 9417 Fit       0.016297
 9418 Fit       0.013996
 9419 Fit       0.011804
 9420 Fit       0.009912
 9421 Fit       0.008367
 9422 Fit       0.008262
 9423 Fit       0.009848
 9424 Fit       0.011821
 9425 Fit       0.014150
 9426 Fit       0.016643
 9427 Fit       0.018865
 9428 Fit       0.020211
 9429 Fit       0.020204
 9430 Fit       0.018849
 9431 Fit       0.016622
 9432 Fit       0.014129
 9433 Fit       0.011802
 9434 Fit       0.009833
 9435 Fit       0.008251
 9436 Fit       0.008070
 9437 Fit       0.009616
 9438 Fit       0.011545
 9439 Fit       0.013830
 9440 Fit       0.016282
 9441 Fit       0.018477
 9442 Fit       0.019808
 9443 Fit       0.019801
 9444 Fit       0.018459
 9445 Fit       0.016260
 9446 Fit       0.013806
 9447 Fit       0.011524
 9448 Fit       0.009599
 9449 Fit       0.008057
 9450 Fit       0.007821
 9451 Fit       0.009260
 9452 Fit       0.011032
 9453 Fit       0.013101
 9454 Fit       0.015291
 9455 Fit       0.017225
 9456 Fit       0.018387
 9457 Fit       0.018381
 9458 Fit       0.017208
 9459 Fit       0.015269
 9460 Fit       0.013077
 9461 Fit       0.011010
 9462 Fit       0.009241
 9463 Fit       0.007806
 9464 Fit       0.007550
 9465 Fit       0.008838
 9466 Fit       0.010385
 9467 Fit       0.012142
 9468 Fit       0.013949
 9469 Fit       0.015502
 9470 Fit       0.016418
 9471 Fit       0.016413
 9472 Fit       0.015487
 9473 Fit       0.013928
 9474 Fit       0.012120
 9475 Fit       0.010364
 9476 Fit       0.008819
 9477 Fit       0.007534
 9478 Fit       0.007288
 9479 Fit       0.008415
 9480 Fit       0.009724
 9481 Fit       0.011158
 9482 Fit       0.012578
 9483 Fit       0.013759
 9484 Fit       0.014439
 9485 Fit       0.014434
 9486 Fit       0.013746
 9487 Fit       0.012559
 9488 Fit       0.011137
 9489 Fit       0.009704
 9490 Fit       0.008396
 9491 Fit       0.007272
 9492 Fit       0.008034
 9493 Fit       0.009130
 9494 Fit       0.010285
 9495 Fit       0.011385
 9496 Fit       0.012271
 9497 Fit       0.012769
 9498 Fit       0.012765
 9499 Fit       0.012260
 9500 Fit       0.011370
 9501 Fit       0.010266
 9502 Fit       0.009111
 9503 Fit       0.008016
 9504 Fit       0.008633
 9505 Fit       0.009571
 9506 Fit       0.010434
 9507 Fit       0.011109
 9508 Fit       0.011480
 9509 Fit       0.011477
 9510 Fit       0.011099
 9511 Fit       0.010420
 9512 Fit       0.009554
 9513 Fit       0.008616
 9514 Fit       0.009001
 9515 Fit       0.009695
 9516 Fit       0.010225
 9517 Fit       0.010511
 9518 Fit       0.010509
 9519 Fit       0.010217
 9520 Fit       0.009683
 9521 Fit       0.008986
 9522 Fit       0.009765
 9523 Fit       0.009762
 9524 Fit       0.011005
 9525 Fit       0.011578
 9526 Fit       0.011888
 9527 Fit       0.011887
 9528 Fit       0.011577
 9529 Fit       0.011005
 9530 Fit       0.010821
 9531 Fit       0.011741
 9532 Fit       0.012453
 9533 Fit       0.012843
 9534 Fit       0.012842
 9535 Fit       0.012451
 9536 Fit       0.011739
 9537 Fit       0.010819
 9538 Fit       0.010185
 9539 Fit       0.011375
 9540 Fit       0.012484
 9541 Fit       0.013359
 9542 Fit       0.013846
 9543 Fit       0.013845
 9544 Fit       0.013356
 9545 Fit       0.012479
 9546 Fit       0.011370
 9547 Fit       0.010181
 9548 Fit       0.009193
 9549 Fit       0.010485
 9550 Fit       0.011848
 9551 Fit       0.013150
 9552 Fit       0.014199
 9553 Fit       0.014791
 9554 Fit       0.014789
 9555 Fit       0.014194
 9556 Fit       0.013143
 9557 Fit       0.011840
 9558 Fit       0.010478
 9559 Fit       0.009187
 9560 Fit       0.009262
 9561 Fit       0.010656
 9562 Fit       0.012157
 9563 Fit       0.013619
 9564 Fit       0.014818
 9565 Fit       0.015501
 9566 Fit       0.015499
 9567 Fit       0.014810
 9568 Fit       0.013609
 9569 Fit       0.012146
 9570 Fit       0.010646
 9571 Fit       0.009253
 9572 Fit       0.009212
 9573 Fit       0.010651
 9574 Fit       0.012219
 9575 Fit       0.013764
 9576 Fit       0.015043
 9577 Fit       0.015779
 9578 Fit       0.015775
 9579 Fit       0.015035
 9580 Fit       0.013752
 9581 Fit       0.012205
 9582 Fit       0.010638
 9583 Fit       0.009201
 9584 Fit       0.009040
 9585 Fit       0.010451
 9586 Fit       0.011992
 9587 Fit       0.013513
 9588 Fit       0.014774
 9589 Fit       0.015499
 9590 Fit       0.015496
 9591 Fit       0.014764
 9592 Fit       0.013499
 9593 Fit       0.011977
 9594 Fit       0.010437
 9595 Fit       0.009028
 9596 Fit       0.008765
 9597 Fit       0.010082
 9598 Fit       0.011507
 9599 Fit       0.012901
 9600 Fit       0.014048
 9601 Fit       0.014704
 9602 Fit       0.014700
 9603 Fit       0.014038
 9604 Fit       0.012887
 9605 Fit       0.011491
 9606 Fit       0.010067
 9607 Fit       0.008751
 9608 Fit       0.008425
 9609 Fit       0.009604
 9610 Fit       0.010856
 9611 Fit       0.012059
 9612 Fit       0.013034
 9613 Fit       0.013586
 9614 Fit       0.013582
 9615 Fit       0.013025
 9616 Fit       0.012046
 9617 Fit       0.010841
 9618 Fit       0.009589
 9619 Fit       0.008410
 9620 Fit       0.009089
 9621 Fit       0.010152
 9622 Fit       0.011149
 9623 Fit       0.011941
 9624 Fit       0.012382
 9625 Fit       0.012379
 9626 Fit       0.011933
 9627 Fit       0.011137
 9628 Fit       0.010138
 9629 Fit       0.009074
 9630 Fit       0.008594
 9631 Fit       0.009481
 9632 Fit       0.010293
 9633 Fit       0.010923
 9634 Fit       0.011269
 9635 Fit       0.011267
 9636 Fit       0.010916
 9637 Fit       0.010282
 9638 Fit       0.009468
 9639 Fit       0.008580
 9640 Fit       0.008889
 9641 Fit       0.009549
 9642 Fit       0.010052
 9643 Fit       0.010324
 9644 Fit       0.010322
 9645 Fit       0.010046
 9646 Fit       0.009540
 9647 Fit       0.008877
 9648 Fit       0.009550
 9649 Fit       0.009548
 9650 Fit       0.010908
 9651 Fit       0.011183
 9652 Fit       0.011182
 9653 Fit       0.010906
 9654 Fit       0.010124
 9655 Fit       0.010909
 9656 Fit       0.011510
 9657 Fit       0.011837
 9658 Fit       0.011836
 9659 Fit       0.011507
 9660 Fit       0.010906
 9661 Fit       0.010120
 9662 Fit       0.010448
 9663 Fit       0.011338
 9664 Fit       0.012027
 9665 Fit       0.012406
 9666 Fit       0.012405
 9667 Fit       0.012024
 9668 Fit       0.011333
 9669 Fit       0.010442
 9670 Fit       0.009592
 9671 Fit       0.010644
 9672 Fit       0.011616
 9673 Fit       0.012377
 9674 Fit       0.012797
 9675 Fit       0.012796
 9676 Fit       0.012372
 9677 Fit       0.011609
 9678 Fit       0.010637
 9679 Fit       0.009585
 9680 Fit       0.009583
 9681 Fit       0.010670
 9682 Fit       0.011681
 9683 Fit       0.012477
 9684 Fit       0.012919
 9685 Fit       0.012917
 9686 Fit       0.012472
 9687 Fit       0.011673
 9688 Fit       0.010661
 9689 Fit       0.009574
 9690 Fit       0.009436
 9691 Fit       0.010506
 9692 Fit       0.011502
 9693 Fit       0.012288
 9694 Fit       0.012724
 9695 Fit       0.012722
 9696 Fit       0.012282
 9697 Fit       0.011494
 9698 Fit       0.010496
 9699 Fit       0.009426
 9700 Fit       0.009167
 9701 Fit       0.010172
 9702 Fit       0.011102
 9703 Fit       0.011832
 9704 Fit       0.012236
 9705 Fit       0.012234
 9706 Fit       0.011826
 9707 Fit       0.011093
 9708 Fit       0.010161
 9709 Fit       0.009156
 9710 Fit       0.008811
 9711 Fit       0.009717
 9712 Fit       0.010546
 9713 Fit       0.011190
 9714 Fit       0.011544
 9715 Fit       0.011542
 9716 Fit       0.011184
 9717 Fit       0.010537
 9718 Fit       0.009707
 9719 Fit       0.008800
 9720 Fit       0.009205
 9721 Fit       0.009920
 9722 Fit       0.010468
 9723 Fit       0.010766
 9724 Fit       0.010764
 9725 Fit       0.010462
 9726 Fit       0.009911
 9727 Fit       0.009195
 9728 Fit       0.009296
 9729 Fit       0.009752
 9730 Fit       0.009998
 9731 Fit       0.009996
 9732 Fit       0.009747
 9733 Fit       0.009288
 9734 Fit       0.010375
 9735 Fit       0.010629
 9736 Fit       0.010629
 9737 Fit       0.010373
 9738 Fit       0.010076
 9739 Fit       0.010584
 9740 Fit       0.010860
 9741 Fit       0.010859
 9742 Fit       0.010582
 9743 Fit       0.010072
 9744 Fit       0.010104
 9745 Fit       0.010630
 9746 Fit       0.010915
 9747 Fit       0.010914
 9748 Fit       0.010627
 9749 Fit       0.010099
 9750 Fit       0.009975
 9751 Fit       0.010494
 9752 Fit       0.010775
 9753 Fit       0.010774
 9754 Fit       0.010490
 9755 Fit       0.009969
 9756 Fit       0.009700
 9757 Fit       0.010189
 9758 Fit       0.010454
 9759 Fit       0.010453
 9760 Fit       0.010186
 9761 Fit       0.009694
 9762 Fit       0.009760
 9763 Fit       0.009999
 9764 Fit       0.009998
 9765 Fit       0.009756
 -----------------------------------------------------------------
 Leave Link  602 at Thu Apr 21 16:31:47 2022, MaxMem=   104857600 cpu:               0.6 elap:               0.6
 (Enter /opt/ohpc/pub/libs/gaussian/g16-A.03/haswell/g16/l9999.exe)

 Test job not archived.
 1\1\GINC-CASCADEB033\SP\RB3LYP\6-311++G(d,p)\C5H6N2\MNG228\21-Apr-2022
 \0\\#P B3LYP/6-311++G(d,p) Geom=Allcheck SCF=Tight EmpiricalDispersion
 =GD3BJ Pop=CHELPG SP IOp(6/33=2)\\1VI geo opt\\0,1\H,0,0.9756794111,-0
 .5869725575,-1.7770948185\C,0,2.0414045071,-0.6747456988,-1.9351037451
 \H,0,2.3839936188,-0.8436382478,-2.9474800222\C,0,2.8692940764,-0.5731
 205765,-0.8982377862\H,0,2.4986307824,-0.4035607296,0.1057193639\N,0,4
 .2682503455,-0.6653109476,-0.9471645318\C,0,5.1042751323,-0.5524856663
 ,0.1437309149\H,0,4.7163206969,-0.3817921195,1.1366880026\N,0,6.364023
 8975,-0.6760755933,-0.1848369401\C,0,6.3668830329,-0.8796240969,-1.551
 6592526\H,0,7.2871763266,-1.015519865,-2.0971551717\C,0,5.0910518537,-
 0.8771371832,-2.0437456123\H,0,4.7022163187,-1.0026167181,-3.038360401
 \\Version=ES64L-G16RevA.03\State=1-A\HF=-303.7146094\RMSD=5.431e-09\Di
 pole=-1.1913856,0.0084592,-0.420209\Quadrupole=-1.0026736,-2.3704806,3
 .3731542,-0.6854894,-3.9639851,1.1165032\PG=C01 [X(C5H6N2)]\\@


 THE MOST SERIOUS THREAT TO THE SURVIVAL OF MANKIND IS NOT NOW
 IGNORANCE IN THE TRADITIONAL SENSE,
 BUT A MORALLY NEUTRAL, AN INSENSITIVE OR INHIBITED HUMAN INTELLIGENCE.

                     -- MARGO JEFFERSON IN NEWSWEEK, SEPTEMBER 2, 1974
 Job cpu time:       0 days  0 hours  1 minutes  0.0 seconds.
 Elapsed time:       0 days  0 hours  1 minutes  0.7 seconds.
 File lengths (MBytes):  RWF=    272 Int=      0 D2E=      0 Chk=     32 Scr=     32
 Normal termination of Gaussian 16 at Thu Apr 21 16:31:48 2022.
