 Entering Gaussian System, Link 0=g16
 Initial command:
 /opt/ohpc/pub/libs/gaussian/g16-A.03/haswell/g16/l1.exe "g16_scratch/Gau-359893.inp" -scrdir="g16_scratch/"
 Entering Link 1 = /opt/ohpc/pub/libs/gaussian/g16-A.03/haswell/g16/l1.exe PID=    359895.
  
 Copyright (c) 1988,1990,1992,1993,1995,1998,2003,2009,2016,
            Gaussian, Inc.  All Rights Reserved.
  
 This is part of the Gaussian(R) 16 program.  It is based on
 the Gaussian(R) 09 system (copyright 2009, Gaussian, Inc.),
 the Gaussian(R) 03 system (copyright 2003, Gaussian, Inc.),
 the Gaussian(R) 98 system (copyright 1998, Gaussian, Inc.),
 the Gaussian(R) 94 system (copyright 1995, Gaussian, Inc.),
 the Gaussian 92(TM) system (copyright 1992, Gaussian, Inc.),
 the Gaussian 90(TM) system (copyright 1990, Gaussian, Inc.),
 the Gaussian 88(TM) system (copyright 1988, Gaussian, Inc.),
 the Gaussian 86(TM) system (copyright 1986, Carnegie Mellon
 University), and the Gaussian 82(TM) system (copyright 1983,
 Carnegie Mellon University). Gaussian is a federally registered
 trademark of Gaussian, Inc.
  
 This software contains proprietary and confidential information,
 including trade secrets, belonging to Gaussian, Inc.
  
 This software is provided under written license and may be
 used, copied, transmitted, or stored only in accord with that
 written license.
  
 The following legend is applicable only to US Government
 contracts under FAR:
  
                    RESTRICTED RIGHTS LEGEND
  
 Use, reproduction and disclosure by the US Government is
 subject to restrictions as set forth in subparagraphs (a)
 and (c) of the Commercial Computer Software - Restricted
 Rights clause in FAR 52.227-19.
  
 Gaussian, Inc.
 340 Quinnipiac St., Bldg. 40, Wallingford CT 06492
  
  
 ---------------------------------------------------------------
 Warning -- This program may not be used in any manner that
 competes with the business of Gaussian, Inc. or will provide
 assistance to any competitor of Gaussian, Inc.  The licensee
 of this program is prohibited from giving any competitor of
 Gaussian, Inc. access to this program.  By using this program,
 the user acknowledges that Gaussian, Inc. is engaged in the
 business of creating and licensing software in the field of
 computational chemistry and represents and warrants to the
 licensee that it is not a competitor of Gaussian, Inc. and that
 it will not use this program in any manner prohibited above.
 ---------------------------------------------------------------
  

 Cite this work as:
 Gaussian 16, Revision A.03,
 M. J. Frisch, G. W. Trucks, H. B. Schlegel, G. E. Scuseria, 
 M. A. Robb, J. R. Cheeseman, G. Scalmani, V. Barone, 
 G. A. Petersson, H. Nakatsuji, X. Li, M. Caricato, A. V. Marenich, 
 J. Bloino, B. G. Janesko, R. Gomperts, B. Mennucci, H. P. Hratchian, 
 J. V. Ortiz, A. F. Izmaylov, J. L. Sonnenberg, D. Williams-Young, 
 F. Ding, F. Lipparini, F. Egidi, J. Goings, B. Peng, A. Petrone, 
 T. Henderson, D. Ranasinghe, V. G. Zakrzewski, J. Gao, N. Rega, 
 G. Zheng, W. Liang, M. Hada, M. Ehara, K. Toyota, R. Fukuda, 
 J. Hasegawa, M. Ishida, T. Nakajima, Y. Honda, O. Kitao, H. Nakai, 
 T. Vreven, K. Throssell, J. A. Montgomery, Jr., J. E. Peralta, 
 F. Ogliaro, M. J. Bearpark, J. J. Heyd, E. N. Brothers, K. N. Kudin, 
 V. N. Staroverov, T. A. Keith, R. Kobayashi, J. Normand, 
 K. Raghavachari, A. P. Rendell, J. C. Burant, S. S. Iyengar, 
 J. Tomasi, M. Cossi, J. M. Millam, M. Klene, C. Adamo, R. Cammi, 
 J. W. Ochterski, R. L. Martin, K. Morokuma, O. Farkas, 
 J. B. Foresman, and D. J. Fox, Gaussian, Inc., Wallingford CT, 2016.
 
 ******************************************
 Gaussian 16:  ES64L-G16RevA.03 25-Dec-2016
                21-Apr-2022 
 ******************************************
 %Mem=192GB
 %NProcShared=48
 Will use up to   48 processors via shared memory.
 %Chk=1VI-1.chk
 ---------------------------------------------------------------------
 #n B3LYP/6-311++G(d,p) Opt freq EmpiricalDispersion=GD3BJ IOp(6/33=2)
 ---------------------------------------------------------------------
 1/18=20,19=15,26=3,38=1/1,3;
 2/9=110,12=2,17=6,18=5,40=1/2;
 3/5=4,6=6,7=1111,11=2,25=1,30=1,71=1,74=-5,124=41/1,2,3;
 4//1;
 5/5=2,38=5/2;
 6/7=2,8=2,9=2,10=2,28=1,33=2/1;
 7//1,2,3,16;
 1/18=20,19=15,26=3/3(2);
 2/9=110/2;
 99//99;
 2/9=110/2;
 3/5=4,6=6,7=1111,11=2,25=1,30=1,71=1,74=-5,124=41/1,2,3;
 4/5=5,16=3,69=1/1;
 5/5=2,38=5/2;
 7//1,2,3,16;
 1/18=20,19=15,26=3/3(-5);
 2/9=110/2;
 6/7=2,8=2,9=2,10=2,19=2,28=1,33=2/1;
 99/9=1/99;
 -----------
 1VI geo opt
 -----------
 Symbolic Z-matrix:
 Charge =  0 Multiplicity = 1
 H                     0.9975   -0.2874    0.0266 
 C                     2.0751   -0.3483    0.1564 
 H                     2.4521   -0.2184    1.1643 
 C                     2.8696   -0.5664   -0.901 
 H                     2.4156   -0.6793   -1.8824 
 N                     4.2608   -0.6617   -0.8973 
 C                     5.1395   -0.5586    0.1623 
 H                     4.8027   -0.3982    1.1771 
 N                     6.3973   -0.6743   -0.2034 
 C                     6.3547   -0.8719   -1.5538 
 H                     7.2598   -0.9984   -2.1337 
 C                     5.0566   -0.8814   -2.0027 
 H                     4.6384   -1.012    -2.9903 
 

 GradGradGradGradGradGradGradGradGradGradGradGradGradGradGradGradGradGrad
 Berny optimization.
 Initialization pass.
                           ----------------------------
                           !    Initial Parameters    !
                           ! (Angstroms and Degrees)  !
 --------------------------                            --------------------------
 ! Name  Definition              Value          Derivative Info.                !
 --------------------------------------------------------------------------------
 ! R1    R(1,2)                  1.0871         estimate D2E/DX2                !
 ! R2    R(2,3)                  1.0839         estimate D2E/DX2                !
 ! R3    R(2,4)                  1.3405         estimate D2E/DX2                !
 ! R4    R(4,5)                  1.0872         estimate D2E/DX2                !
 ! R5    R(4,6)                  1.3945         estimate D2E/DX2                !
 ! R6    R(6,7)                  1.3804         estimate D2E/DX2                !
 ! R7    R(6,12)                 1.3797         estimate D2E/DX2                !
 ! R8    R(7,8)                  1.0812         estimate D2E/DX2                !
 ! R9    R(7,9)                  1.315          estimate D2E/DX2                !
 ! R10   R(9,10)                 1.3654         estimate D2E/DX2                !
 ! R11   R(10,11)                1.0824         estimate D2E/DX2                !
 ! R12   R(10,12)                1.3736         estimate D2E/DX2                !
 ! R13   R(12,13)                1.0804         estimate D2E/DX2                !
 ! A1    A(1,2,3)              116.6853         estimate D2E/DX2                !
 ! A2    A(1,2,4)              120.1621         estimate D2E/DX2                !
 ! A3    A(3,2,4)              123.1514         estimate D2E/DX2                !
 ! A4    A(2,4,5)              118.7801         estimate D2E/DX2                !
 ! A5    A(2,4,6)              126.8939         estimate D2E/DX2                !
 ! A6    A(5,4,6)              114.3246         estimate D2E/DX2                !
 ! A7    A(4,6,7)              129.1977         estimate D2E/DX2                !
 ! A8    A(4,6,12)             125.7474         estimate D2E/DX2                !
 ! A9    A(7,6,12)             105.0544         estimate D2E/DX2                !
 ! A10   A(6,7,8)              122.2257         estimate D2E/DX2                !
 ! A11   A(6,7,9)              112.8817         estimate D2E/DX2                !
 ! A12   A(8,7,9)              124.8925         estimate D2E/DX2                !
 ! A13   A(7,9,10)             104.9472         estimate D2E/DX2                !
 ! A14   A(9,10,11)            121.379          estimate D2E/DX2                !
 ! A15   A(9,10,12)            110.7138         estimate D2E/DX2                !
 ! A16   A(11,10,12)           127.9072         estimate D2E/DX2                !
 ! A17   A(6,12,10)            106.3898         estimate D2E/DX2                !
 ! A18   A(6,12,13)            121.8948         estimate D2E/DX2                !
 ! A19   A(10,12,13)           131.7117         estimate D2E/DX2                !
 ! D1    D(1,2,4,5)              0.0378         estimate D2E/DX2                !
 ! D2    D(1,2,4,6)            179.5978         estimate D2E/DX2                !
 ! D3    D(3,2,4,5)           -179.5489         estimate D2E/DX2                !
 ! D4    D(3,2,4,6)              0.0111         estimate D2E/DX2                !
 ! D5    D(2,4,6,7)              0.0018         estimate D2E/DX2                !
 ! D6    D(2,4,6,12)          -179.7021         estimate D2E/DX2                !
 ! D7    D(5,4,6,7)            179.5786         estimate D2E/DX2                !
 ! D8    D(5,4,6,12)            -0.1253         estimate D2E/DX2                !
 ! D9    D(4,6,7,8)              1.2073         estimate D2E/DX2                !
 ! D10   D(4,6,7,9)           -178.7194         estimate D2E/DX2                !
 ! D11   D(12,6,7,8)          -179.0416         estimate D2E/DX2                !
 ! D12   D(12,6,7,9)             1.0318         estimate D2E/DX2                !
 ! D13   D(4,6,12,10)          178.6276         estimate D2E/DX2                !
 ! D14   D(4,6,12,13)           -0.7466         estimate D2E/DX2                !
 ! D15   D(7,6,12,10)           -1.1348         estimate D2E/DX2                !
 ! D16   D(7,6,12,13)          179.491          estimate D2E/DX2                !
 ! D17   D(6,7,9,10)            -0.469          estimate D2E/DX2                !
 ! D18   D(8,7,9,10)           179.6066         estimate D2E/DX2                !
 ! D19   D(7,9,10,11)          179.7798         estimate D2E/DX2                !
 ! D20   D(7,9,10,12)           -0.296          estimate D2E/DX2                !
 ! D21   D(9,10,12,6)            0.9241         estimate D2E/DX2                !
 ! D22   D(9,10,12,13)        -179.7876         estimate D2E/DX2                !
 ! D23   D(11,10,12,6)        -179.1579         estimate D2E/DX2                !
 ! D24   D(11,10,12,13)          0.1304         estimate D2E/DX2                !
 --------------------------------------------------------------------------------
 Trust Radius=3.00D-01 FncErr=1.00D-07 GrdErr=1.00D-06 EigMax=2.50D+02 EigMin=1.00D-04
 Number of steps in this run=     66 maximum allowed number of steps=    100.
 GradGradGradGradGradGradGradGradGradGradGradGradGradGradGradGradGradGrad

                          Input orientation:                          
 ---------------------------------------------------------------------
 Center     Atomic      Atomic             Coordinates (Angstroms)
 Number     Number       Type             X           Y           Z
 ---------------------------------------------------------------------
      1          1           0        0.997500   -0.287400    0.026600
      2          6           0        2.075100   -0.348300    0.156400
      3          1           0        2.452100   -0.218400    1.164300
      4          6           0        2.869600   -0.566400   -0.901000
      5          1           0        2.415600   -0.679300   -1.882400
      6          7           0        4.260800   -0.661700   -0.897300
      7          6           0        5.139500   -0.558600    0.162300
      8          1           0        4.802700   -0.398200    1.177100
      9          7           0        6.397300   -0.674300   -0.203400
     10          6           0        6.354700   -0.871900   -1.553800
     11          1           0        7.259800   -0.998400   -2.133700
     12          6           0        5.056600   -0.881400   -2.002700
     13          1           0        4.638400   -1.012000   -2.990300
 ---------------------------------------------------------------------
                    Distance matrix (angstroms):
                    1          2          3          4          5
     1  H    0.000000
     2  C    1.087096   0.000000
     3  H    1.847967   1.083912   0.000000
     4  C    2.107852   1.340482   2.135620   0.000000
     5  H    2.410161   2.093372   3.081581   1.087202   0.000000
     6  N    3.412157   2.446587   2.778148   1.394465   2.091768
     7  C    4.153087   3.071613   2.888228   2.506614   3.408078
     8  H    3.976867   2.912751   2.357501   2.843179   3.890733
     9  N    5.418527   4.349384   4.200363   3.597632   4.321227
    10  C    5.615950   4.638310   4.800564   3.558848   3.957472
    11  H    6.662493   5.705112   5.882107   4.580396   4.861198
    12  C    4.576810   3.719577   4.153658   2.468995   2.651452
    13  H    4.783606   4.112508   4.761345   2.773515   2.505788
                    6          7          8          9         10
     6  N    0.000000
     7  C    1.380397   0.000000
     8  H    2.160144   1.081194   0.000000
     9  N    2.246394   1.314984   2.127148   0.000000
    10  C    2.204449   2.125998   3.176619   1.365445   0.000000
    11  H    3.261296   3.156060   4.166411   2.138926   1.082355
    12  C    1.379665   2.190502   3.226310   2.253408   1.373559
    13  H    2.155444   3.224215   4.215563   3.312791   2.242509
                   11         12         13
    11  H    0.000000
    12  C    2.210190   0.000000
    13  H    2.757841   1.080417   0.000000
 Stoichiometry    C5H6N2
 Framework group  C1[X(C5H6N2)]
 Deg. of freedom    33
 Full point group                 C1      NOp   1
 Largest Abelian subgroup         C1      NOp   1
 Largest concise Abelian subgroup C1      NOp   1
                         Standard orientation:                         
 ---------------------------------------------------------------------
 Center     Atomic      Atomic             Coordinates (Angstroms)
 Number     Number       Type             X           Y           Z
 ---------------------------------------------------------------------
      1          1           0       -3.625775    0.060257    0.021024
      2          6           0       -2.605873   -0.315781    0.007858
      3          1           0       -2.484138   -1.392836    0.007926
      4          6           0       -1.573036    0.538669    0.000396
      5          1           0       -1.777056    1.606527    0.008377
      6          7           0       -0.217165    0.212988   -0.008451
      7          6           0        0.381261   -1.030946   -0.011669
      8          1           0       -0.192940   -1.946945   -0.026535
      9          7           0        1.694543   -0.966604    0.006601
     10          6           0        1.981713    0.368292    0.011770
     11          1           0        3.003479    0.724891    0.029809
     12          6           0        0.828088    1.113498   -0.010204
     13          1           0        0.661857    2.181031   -0.016551
 ---------------------------------------------------------------------
 Rotational constants (GHZ):           8.2507779           2.0945889           1.6706081
 Standard basis: 6-311++G(d,p) (5D, 7F)
 There are   203 symmetry adapted cartesian basis functions of A   symmetry.
 There are   196 symmetry adapted basis functions of A   symmetry.
   196 basis functions,   306 primitive gaussians,   203 cartesian basis functions
    25 alpha electrons       25 beta electrons
       nuclear repulsion energy       274.8944365824 Hartrees.
 NAtoms=   13 NActive=   13 NUniq=   13 SFac= 1.00D+00 NAtFMM=   60 NAOKFM=F Big=F
 Integral buffers will be    131072 words long.
 Raffenetti 2 integral format.
 Two-electron integral symmetry is turned on.
 Nuclear repulsion after empirical dispersion term =      274.8751025253 Hartrees.
 One-electron integrals computed using PRISM.
 NBasis=   196 RedAO= T EigKep=  8.70D-06  NBF=   196
 NBsUse=   196 1.00D-06 EigRej= -1.00D+00 NBFU=   196
 ExpMin= 3.60D-02 ExpMax= 6.29D+03 ExpMxC= 9.49D+02 IAcc=3 IRadAn=         5 AccDes= 0.00D+00
 Harris functional with IExCor=  402 and IRadAn=       5 diagonalized for initial guess.
 HarFok:  IExCor=  402 AccDes= 0.00D+00 IRadAn=         5 IDoV= 1 UseB2=F ITyADJ=14
 ICtDFT=  3500011 ScaDFX=  1.000000  1.000000  1.000000  1.000000
 FoFCou: FMM=F IPFlag=           0 FMFlag=      100000 FMFlg1=           0
         NFxFlg=           0 DoJE=T BraDBF=F KetDBF=T FulRan=T
         wScrn=  0.000000 ICntrl=       500 IOpCl=  0 I1Cent=   200000004 NGrid=           0
         NMat0=    1 NMatS0=      1 NMatT0=    0 NMatD0=    1 NMtDS0=    0 NMtDT0=    0
 Petite list used in FoFCou.
 Requested convergence on RMS density matrix=1.00D-08 within 128 cycles.
 Requested convergence on MAX density matrix=1.00D-06.
 Requested convergence on             energy=1.00D-06.
 No special actions if energy rises.
 SCF Done:  E(RB3LYP) =  -303.712177016     A.U. after   13 cycles
            NFock= 13  Conv=0.54D-08     -V/T= 2.0044
 SCF density gives NOpUse=  1 NOpAll=  1.

 **********************************************************************

            Population analysis using the SCF density.

 **********************************************************************

 Orbital symmetries:
 BldTbl:  Degeneracy threshold= 1.00D-02
       Occupied  (A) (A) (A) (A) (A) (A) (A) (A) (A) (A) (A) (A)
                 (A) (A) (A) (A) (A) (A) (A) (A) (A) (A) (A) (A)
                 (A)
       Virtual   (A) (A) (A) (A) (A) (A) (A) (A) (A) (A) (A) (A)
                 (A) (A) (A) (A) (A) (A) (A) (A) (A) (A) (A) (A)
                 (A) (A) (A) (A) (A) (A) (A) (A) (A) (A) (A) (A)
                 (A) (A) (A) (A) (A) (A) (A) (A) (A) (A) (A) (A)
                 (A) (A) (A) (A) (A) (A) (A) (A) (A) (A) (A) (A)
                 (A) (A) (A) (A) (A) (A) (A) (A) (A) (A) (A) (A)
                 (A) (A) (A) (A) (A) (A) (A) (A) (A) (A) (A) (A)
                 (A) (A) (A) (A) (A) (A) (A) (A) (A) (A) (A) (A)
                 (A) (A) (A) (A) (A) (A) (A) (A) (A) (A) (A) (A)
                 (A) (A) (A) (A) (A) (A) (A) (A) (A) (A) (A) (A)
                 (A) (A) (A) (A) (A) (A) (A) (A) (A) (A) (A) (A)
                 (A) (A) (A) (A) (A) (A) (A) (A) (A) (A) (A) (A)
                 (A) (A) (A) (A) (A) (A) (A) (A) (A) (A) (A) (A)
                 (A) (A) (A) (A) (A) (A) (A) (A) (A) (A) (A) (A)
                 (A) (A) (A)
 The electronic state is 1-A.
 Alpha  occ. eigenvalues --  -14.39547 -14.30627 -10.24162 -10.23384 -10.21000
 Alpha  occ. eigenvalues --  -10.19295 -10.18948  -1.03957  -0.91319  -0.79056
 Alpha  occ. eigenvalues --   -0.74805  -0.66494  -0.61307  -0.57921  -0.54039
 Alpha  occ. eigenvalues --   -0.48568  -0.46250  -0.45538  -0.43782  -0.42117
 Alpha  occ. eigenvalues --   -0.40340  -0.34485  -0.28522  -0.26444  -0.23978
 Alpha virt. eigenvalues --   -0.04574  -0.01100   0.00308   0.01033   0.02019
 Alpha virt. eigenvalues --    0.02774   0.03829   0.03925   0.05079   0.05981
 Alpha virt. eigenvalues --    0.06019   0.07346   0.08577   0.09375   0.09472
 Alpha virt. eigenvalues --    0.10360   0.10890   0.12139   0.12618   0.12767
 Alpha virt. eigenvalues --    0.13148   0.13407   0.13588   0.14246   0.15012
 Alpha virt. eigenvalues --    0.16046   0.17514   0.17854   0.18591   0.20609
 Alpha virt. eigenvalues --    0.21520   0.21687   0.22239   0.23227   0.23265
 Alpha virt. eigenvalues --    0.24549   0.26575   0.27636   0.27856   0.28566
 Alpha virt. eigenvalues --    0.29228   0.29758   0.32365   0.33657   0.35271
 Alpha virt. eigenvalues --    0.36301   0.37712   0.43200   0.44473   0.47140
 Alpha virt. eigenvalues --    0.48755   0.52976   0.53240   0.53920   0.54986
 Alpha virt. eigenvalues --    0.56961   0.57504   0.57998   0.62269   0.62791
 Alpha virt. eigenvalues --    0.66225   0.67520   0.69822   0.71018   0.72166
 Alpha virt. eigenvalues --    0.72821   0.75092   0.76991   0.79642   0.80506
 Alpha virt. eigenvalues --    0.84178   0.85055   0.86986   0.88472   0.91032
 Alpha virt. eigenvalues --    0.91680   0.92863   0.94218   0.97094   1.00906
 Alpha virt. eigenvalues --    1.02874   1.03332   1.06014   1.12711   1.13616
 Alpha virt. eigenvalues --    1.16321   1.19010   1.19045   1.26399   1.29133
 Alpha virt. eigenvalues --    1.33573   1.39854   1.45023   1.49820   1.52510
 Alpha virt. eigenvalues --    1.52774   1.55935   1.62318   1.62443   1.63145
 Alpha virt. eigenvalues --    1.68630   1.71571   1.72096   1.72543   1.75585
 Alpha virt. eigenvalues --    1.76374   1.78371   1.84140   1.84481   1.89550
 Alpha virt. eigenvalues --    1.90065   1.97506   2.02894   2.03479   2.07397
 Alpha virt. eigenvalues --    2.08611   2.13885   2.18290   2.23316   2.25970
 Alpha virt. eigenvalues --    2.27296   2.35079   2.40361   2.42874   2.43481
 Alpha virt. eigenvalues --    2.49342   2.55282   2.57686   2.58610   2.59903
 Alpha virt. eigenvalues --    2.60589   2.64904   2.66851   2.73778   2.74294
 Alpha virt. eigenvalues --    2.75160   2.76382   2.78541   2.80435   2.82574
 Alpha virt. eigenvalues --    2.86504   2.89019   2.92128   2.93837   2.97405
 Alpha virt. eigenvalues --    3.12134   3.21917   3.29988   3.38912   3.47180
 Alpha virt. eigenvalues --    3.59212   3.62440   3.64833   3.70817   3.76339
 Alpha virt. eigenvalues --    3.83586   3.84967   3.91886   4.08692   4.11199
 Alpha virt. eigenvalues --    4.48428   4.75716   5.09451   5.25699  23.73899
 Alpha virt. eigenvalues --   23.80881  23.91447  24.14084  24.20098  35.49657
 Alpha virt. eigenvalues --   35.66716
          Condensed to atoms (all electrons):
               1          2          3          4          5          6
     1  H    0.508913   0.434582  -0.027860  -0.072683  -0.013037   0.023801
     2  C    0.434582   5.227792   0.326392   0.605044  -0.037675  -0.063839
     3  H   -0.027860   0.326392   0.547551   0.053258   0.011748  -0.027456
     4  C   -0.072683   0.605044   0.053258   4.918444   0.406571   0.169201
     5  H   -0.013037  -0.037675   0.011748   0.406571   0.541744  -0.065912
     6  N    0.023801  -0.063839  -0.027456   0.169201  -0.065912   6.791886
     7  C   -0.001056  -0.028813  -0.006154  -0.042304  -0.007717   0.161209
     8  H   -0.001665  -0.004503  -0.002626   0.017940  -0.001289  -0.116594
     9  N    0.000234   0.006081   0.003751   0.017713  -0.000129   0.024353
    10  C    0.000535  -0.027664  -0.000399  -0.001796   0.001540  -0.214619
    11  H    0.000008  -0.001709   0.000001  -0.001917   0.000323   0.013117
    12  C   -0.002044  -0.016719   0.002261  -0.091748   0.007669   0.274958
    13  H   -0.000500  -0.004398  -0.000516   0.003501   0.002523  -0.086783
               7          8          9         10         11         12
     1  H   -0.001056  -0.001665   0.000234   0.000535   0.000008  -0.002044
     2  C   -0.028813  -0.004503   0.006081  -0.027664  -0.001709  -0.016719
     3  H   -0.006154  -0.002626   0.003751  -0.000399   0.000001   0.002261
     4  C   -0.042304   0.017940   0.017713  -0.001796  -0.001917  -0.091748
     5  H   -0.007717  -0.001289  -0.000129   0.001540   0.000323   0.007669
     6  N    0.161209  -0.116594   0.024353  -0.214619   0.013117   0.274958
     7  C    5.409705   0.438692   0.368953   0.020949   0.032749  -0.179389
     8  H    0.438692   0.558571  -0.068212   0.031219  -0.000622   0.004919
     9  N    0.368953  -0.068212   6.568540   0.273154  -0.085843   0.032512
    10  C    0.020949   0.031219   0.273154   5.299250   0.485097   0.280288
    11  H    0.032749  -0.000622  -0.085843   0.485097   0.534340  -0.138897
    12  C   -0.179389   0.004919   0.032512   0.280288  -0.138897   5.520073
    13  H    0.017148   0.001889   0.006283  -0.012554  -0.003045   0.423619
              13
     1  H   -0.000500
     2  C   -0.004398
     3  H   -0.000516
     4  C    0.003501
     5  H    0.002523
     6  N   -0.086783
     7  C    0.017148
     8  H    0.001889
     9  N    0.006283
    10  C   -0.012554
    11  H   -0.003045
    12  C    0.423619
    13  H    0.522992
 Mulliken charges:
               1
     1  H    0.150771
     2  C   -0.414572
     3  H    0.120049
     4  C    0.018777
     5  H    0.153642
     6  N    0.116678
     7  C   -0.183973
     8  H    0.142283
     9  N   -0.147391
    10  C   -0.135000
    11  H    0.166397
    12  C   -0.117502
    13  H    0.129841
 Sum of Mulliken charges =  -0.00000
 Mulliken charges with hydrogens summed into heavy atoms:
               1
     2  C   -0.143752
     4  C    0.172419
     6  N    0.116678
     7  C   -0.041690
     9  N   -0.147391
    10  C    0.031398
    12  C    0.012339
 DipInt: DoE/N= T F RetVal/Mat= T F Init=T NMatP=  1 IDeriv=0 Min/MaxMlt=  0  4
 Entering OneElI...
 OneElI was handed 25769695761 working-precision words.
 Multipole integrals L=0 to 4 MinM= 0 MaxM= 0.
 Requested accuracy = 0.1000D-12
 ShPair: Thresh= 1.00D-13 NBox=     0 BxSize= 0.00D+00 RnKept= 1.26D+01
         NSMCal=                 2628 NSMKep=                2559
 PrmmSu-InSpLW:  IPartL=    0 NPrtUS=    1 NPrtUL=    1 DoSpLW=F IThBeg=    0 IThEnd=    0 NThAct=    1.
 PrsmSu:  NPrtUS=   1 ThrOK=F IAlg=1 NPAlg=1 LenDen=           0 ISkipM=0 DoSpLW=F IThBeg=    0 IThEnd=    0.
 Prism:   IPart=     0 DynPar=F LinDyn=F Incr=          25.
 PRISM was handed 25769515800 working-precision words and  2559 shell-pairs
 IPart=  0 NShTot=        2559 NBatch=          58 AvBLen=        44.1
 PrsmSu-ThDecC:  IPartSL=    0    0 NPrtUSL=    1    1 IThBeg=    0 IThEnd=    0 CPU=   -1 GPU=   -1 NThAct=    1.
 PrSmSu:  NxtVal=             26.
 Electronic moments (au):
        -50.00000000         -1.08800348          0.76282717         -0.00277644
       -518.44216186       -162.38301656        -33.98089006          3.47218047
         -0.01290479          0.04155852        566.11689039         -0.34972362
         -0.04311942        -92.18380134         66.15768364         -8.13285612
          2.25906371         -1.07367492          1.26790921         -0.05739648
     -11578.90238250      -1439.55801080       -142.03777022       -425.42531739
          5.62336693         10.13071797          0.32824220          0.11118438
          0.05768678      -1249.75845723       -392.05378416       -135.93041614
          0.61458520          0.63488924         -3.60910466
 Electronic spatial extent (au):  <R**2>=            714.8061
 DipInt: DoE/N= F T RetVal/Mat= T F Init=T NMatP=  1 IDeriv=0 Min/MaxMlt=  0  4
 Nuclear    moments (au):
         50.00000000          0.00000000         -0.00000000          0.00000000
        487.59847935        133.64641480          0.02103738         -0.00000000
          0.00000000          0.00000000       -582.59835109          8.93334655
          0.00005549         77.58537921        -48.41645883          8.72915099
          0.01854691         -0.00150314         -1.49441147          0.11066842
       9807.60486018        899.04631705          0.00002459        489.78719591
         -6.05386852         25.69319808          0.01396246          0.00065549
          0.00062575        810.10441623          0.27814884          0.08728187
          0.14243946         -0.94875232          0.04027216
 Total      moments (au):
         -0.00000000         -1.08800348          0.76282717         -0.00277644
        -30.84368251        -28.73660176        -33.95985268          3.47218047
         -0.01290479          0.04155852        -16.48146070          8.58362293
         -0.04306393        -14.59842213         17.74122481          0.59629487
          2.27761062         -1.07517806         -0.22650226          0.05327194
      -1771.29752232       -540.51169376       -142.03774563         64.36187852
         -0.43050159         35.82391604          0.34220466          0.11183987
          0.05831253       -439.65404100       -391.77563533       -135.84313427
          0.75702466         -0.31386308         -3.56883249
 Traceless Quadrup. (au):
          0.33636314          2.44344389         -2.77980703          3.47218047
         -0.01290479          0.04155852
 Charge=             -0.0000 electrons
 Dipole moment (field-independent basis, Debye):
    X=             -2.7654    Y=              1.9389    Z=             -0.0071  Tot=              3.3774
 Quadrupole moment (field-independent basis, Debye-Ang):
   XX=            -41.4858   YY=            -38.6517   ZZ=            -45.6772
   XY=              4.6702   XZ=             -0.0174   YZ=              0.0559
 Traceless Quadrupole moment (field-independent basis, Debye-Ang):
   XX=              0.4524   YY=              3.2865   ZZ=             -3.7389
   XY=              4.6702   XZ=             -0.0174   YZ=              0.0559
 Octapole moment (field-independent basis, Debye-Ang**2):
  XXX=            -11.7309  YYY=              6.1095  ZZZ=             -0.0307  XYY=            -10.3906
  XXY=             12.6275  XXZ=              0.4244  XZZ=              1.6211  YZZ=             -0.7653
  YYZ=             -0.1612  XYZ=              0.0379
 Hexadecapole moment (field-independent basis, Debye-Ang**3):
 XXXX=           -667.1556 YYYY=           -203.5826 ZZZZ=            -53.4982 XXXY=             24.2418
 XXXZ=             -0.1621 YYYX=             13.4930 YYYZ=              0.1289 ZZZX=              0.0421
 ZZZY=              0.0220 XXYY=           -165.5948 XXZZ=           -147.5615 YYZZ=            -51.1650
 XXYZ=              0.2851 YYXZ=             -0.1182 ZZXY=             -1.3442
 N-N= 2.748751025253D+02 E-N=-1.255497344540D+03  KE= 3.023856614941D+02
 Entering OneElI...
 OneElI was handed 25769718726 working-precision words.
 Calculate electrostatic properties
    NBasis =   196  MinDer = 0  MaxDer = 0
    NGrid  =    13  NMatD  =   1
 Requested accuracy = 0.1000D-12
 ShPair: Thresh= 1.00D-13 NBox=     0 BxSize= 0.00D+00 RnKept= 1.26D+01
         NSMCal=                 2628 NSMKep=                2477
 PrmmSu-InSpLW:  IPartL=    0 NPrtUS=   48 NPrtUL=    1 DoSpLW=F IThBeg=    0 IThEnd=   47 NThAct=   48.
 PrsmSu:  NPrtUS=  48 ThrOK=T IAlg=1 NPAlg=1 LenDen=           0 ISkipM=0 DoSpLW=F IThBeg=    0 IThEnd=   47.
 Prism:   IPart=     0 DynPar=F LinDyn=F Incr=           6.
 PRISM was handed   536810657 working-precision words and  2477 shell-pairs
 PRISM was handed   536810657 working-precision words and  2477 shell-pairs
 PRISM was handed   536810657 working-precision words and  2477 shell-pairs
 PRISM was handed   536810657 working-precision words and  2477 shell-pairs
 PRISM was handed   536810657 working-precision words and  2477 shell-pairs
 PRISM was handed   536810657 working-precision words and  2477 shell-pairs
 PRISM was handed   536810657 working-precision words and  2477 shell-pairs
 PRISM was handed   536810657 working-precision words and  2477 shell-pairs
 PRISM was handed   536810657 working-precision words and  2477 shell-pairs
 PRISM was handed   536810657 working-precision words and  2477 shell-pairs
 PRISM was handed   536810657 working-precision words and  2477 shell-pairs
 PRISM was handed   536810657 working-precision words and  2477 shell-pairs
 PRISM was handed   536810657 working-precision words and  2477 shell-pairs
 PRISM was handed   536810657 working-precision words and  2477 shell-pairs
 PRISM was handed   536810657 working-precision words and  2477 shell-pairs
 PRISM was handed   536810657 working-precision words and  2477 shell-pairs
 PRISM was handed   536810657 working-precision words and  2477 shell-pairs
 PRISM was handed   536810657 working-precision words and  2477 shell-pairs
 PRISM was handed   536810657 working-precision words and  2477 shell-pairs
 PRISM was handed   536810657 working-precision words and  2477 shell-pairs
 PRISM was handed   536810657 working-precision words and  2477 shell-pairs
 PRISM was handed   536810657 working-precision words and  2477 shell-pairs
 PRISM was handed   536810657 working-precision words and  2477 shell-pairs
 PRISM was handed   536810657 working-precision words and  2477 shell-pairs
 PRISM was handed   536810657 working-precision words and  2477 shell-pairs
 PRISM was handed   536810657 working-precision words and  2477 shell-pairs
 PRISM was handed   536810657 working-precision words and  2477 shell-pairs
 PRISM was handed   536810657 working-precision words and  2477 shell-pairs
 PRISM was handed   536810657 working-precision words and  2477 shell-pairs
 PRISM was handed   536810657 working-precision words and  2477 shell-pairs
 PRISM was handed   536810657 working-precision words and  2477 shell-pairs
 PRISM was handed   536810657 working-precision words and  2477 shell-pairs
 PRISM was handed   536810657 working-precision words and  2477 shell-pairs
 PRISM was handed   536810657 working-precision words and  2477 shell-pairs
 PRISM was handed   536810657 working-precision words and  2477 shell-pairs
 PRISM was handed   536810657 working-precision words and  2477 shell-pairs
 PRISM was handed   536810657 working-precision words and  2477 shell-pairs
 PRISM was handed   536810657 working-precision words and  2477 shell-pairs
 PRISM was handed   536810657 working-precision words and  2477 shell-pairs
 PRISM was handed   536810657 working-precision words and  2477 shell-pairs
 PRISM was handed   536810657 working-precision words and  2477 shell-pairs
 PRISM was handed   536810657 working-precision words and  2477 shell-pairs
 PRISM was handed   536810657 working-precision words and  2477 shell-pairs
 PRISM was handed   536810657 working-precision words and  2477 shell-pairs
 PRISM was handed   536810657 working-precision words and  2477 shell-pairs
 PRISM was handed   536810657 working-precision words and  2477 shell-pairs
 PRISM was handed   536810657 working-precision words and  2477 shell-pairs
 PRISM was handed   536810657 working-precision words and  2477 shell-pairs
 IPart= 38 NShTot=         572 NBatch=          44 AvBLen=        13.0
 PrsmSu-ThDecC:  IPartSL=   38    0 NPrtUSL=   48    1 IThBeg=    0 IThEnd=   47 CPU=   -1 GPU=   -1 NThAct=   48.
 IPart= 43 NShTot=         520 NBatch=          40 AvBLen=        13.0
 PrsmSu-ThDecC:  IPartSL=   43    0 NPrtUSL=   48    1 IThBeg=    0 IThEnd=   47 CPU=   -1 GPU=   -1 NThAct=   47.
 IPart= 32 NShTot=         585 NBatch=          45 AvBLen=        13.0
 PrsmSu-ThDecC:  IPartSL=   32    0 NPrtUSL=   48    1 IThBeg=    0 IThEnd=   47 CPU=   -1 GPU=   -1 NThAct=   46.
 IPart= 29 NShTot=         598 NBatch=          46 AvBLen=        13.0
 PrsmSu-ThDecC:  IPartSL=   29    0 NPrtUSL=   48    1 IThBeg=    0 IThEnd=   47 CPU=   -1 GPU=   -1 NThAct=   45.
 IPart= 34 NShTot=         585 NBatch=          45 AvBLen=        13.0
 PrsmSu-ThDecC:  IPartSL=   34    0 NPrtUSL=   48    1 IThBeg=    0 IThEnd=   47 CPU=   -1 GPU=   -1 NThAct=   44.
 IPart= 28 NShTot=         598 NBatch=          46 AvBLen=        13.0
 PrsmSu-ThDecC:  IPartSL=   28    0 NPrtUSL=   48    1 IThBeg=    0 IThEnd=   47 CPU=   -1 GPU=   -1 NThAct=   43.
 IPart= 47 NShTot=         494 NBatch=          38 AvBLen=        13.0
 PrsmSu-ThDecC:  IPartSL=   47    0 NPrtUSL=   48    1 IThBeg=    0 IThEnd=   47 CPU=   -1 GPU=   -1 NThAct=   42.
 IPart= 30 NShTot=         585 NBatch=          45 AvBLen=        13.0
 PrsmSu-ThDecC:  IPartSL=   30    0 NPrtUSL=   48    1 IThBeg=    0 IThEnd=   47 CPU=   -1 GPU=   -1 NThAct=   41.
 IPart= 35 NShTot=         585 NBatch=          45 AvBLen=        13.0
 IPart= 33 NShTot=         585 NBatch=          45 AvBLen=        13.0
 PrsmSu-ThDecC:  IPartSL=   35    0 NPrtUSL=   48    1 IThBeg=    0 IThEnd=   47 CPU=   -1 GPU=   -1 NThAct=   40.
 PrsmSu-ThDecC:  IPartSL=   33    0 NPrtUSL=   48    1 IThBeg=    0 IThEnd=   47 CPU=   -1 GPU=   -1 NThAct=   39.
 IPart= 41 NShTot=         546 NBatch=          42 AvBLen=        13.0
 PrsmSu-ThDecC:  IPartSL=   41    0 NPrtUSL=   48    1 IThBeg=    0 IThEnd=   47 CPU=   -1 GPU=   -1 NThAct=   38.
 IPart= 42 NShTot=         546 NBatch=          42 AvBLen=        13.0
 PrsmSu-ThDecC:  IPartSL=   42    0 NPrtUSL=   48    1 IThBeg=    0 IThEnd=   47 CPU=   -1 GPU=   -1 NThAct=   37.
 IPart= 36 NShTot=         585 NBatch=          45 AvBLen=        13.0
 PrsmSu-ThDecC:  IPartSL=   36    0 NPrtUSL=   48    1 IThBeg=    0 IThEnd=   47 CPU=   -1 GPU=   -1 NThAct=   36.
 IPart= 22 NShTot=         650 NBatch=          50 AvBLen=        13.0
 PrsmSu-ThDecC:  IPartSL=   22    0 NPrtUSL=   48    1 IThBeg=    0 IThEnd=   47 CPU=   -1 GPU=   -1 NThAct=   35.
 IPart= 16 NShTot=         676 NBatch=          52 AvBLen=        13.0
 PrsmSu-ThDecC:  IPartSL=   16    0 NPrtUSL=   48    1 IThBeg=    0 IThEnd=   47 CPU=   -1 GPU=   -1 NThAct=   34.
 IPart= 13 NShTot=         715 NBatch=          55 AvBLen=        13.0
 IPart= 21 NShTot=         650 NBatch=          50 AvBLen=        13.0
 IPart=  7 NShTot=         767 NBatch=          59 AvBLen=        13.0
 IPart= 20 NShTot=         650 NBatch=          50 AvBLen=        13.0
 IPart= 24 NShTot=         650 NBatch=          50 AvBLen=        13.0
 IPart= 19 NShTot=         650 NBatch=          50 AvBLen=        13.0
 IPart=  5 NShTot=         871 NBatch=          67 AvBLen=        13.0
 IPart=  8 NShTot=         754 NBatch=          58 AvBLen=        13.0
 PrsmSu-ThDecC:  IPartSL=   13    0 NPrtUSL=   48    1 IThBeg=    0 IThEnd=   47 CPU=   -1 GPU=   -1 NThAct=   33.
 PrsmSu-ThDecC:  IPartSL=    8    0 NPrtUSL=   48    1 IThBeg=    0 IThEnd=   47 CPU=   -1 GPU=   -1 NThAct=   32.
 IPart= 23 NShTot=         650 NBatch=          50 AvBLen=        13.0
 PrsmSu-ThDecC:  IPartSL=   24    0 NPrtUSL=   48    1 IThBeg=    0 IThEnd=   47 CPU=   -1 GPU=   -1 NThAct=   31.
 IPart=  9 NShTot=         754 NBatch=          58 AvBLen=        13.0
 PrsmSu-ThDecC:  IPartSL=   23    0 NPrtUSL=   48    1 IThBeg=    0 IThEnd=   47 CPU=   -1 GPU=   -1 NThAct=   30.
 PrsmSu-ThDecC:  IPartSL=   20    0 NPrtUSL=   48    1 IThBeg=    0 IThEnd=   47 CPU=   -1 GPU=   -1 NThAct=   29.
 PrsmSu-ThDecC:  IPartSL=    5    0 NPrtUSL=   48    1 IThBeg=    0 IThEnd=   47 CPU=   -1 GPU=   -1 NThAct=   28.
 PrsmSu-ThDecC:  IPartSL=    9    0 NPrtUSL=   48    1 IThBeg=    0 IThEnd=   47 CPU=   -1 GPU=   -1 NThAct=   27.
 PrsmSu-ThDecC:  IPartSL=   19    0 NPrtUSL=   48    1 IThBeg=    0 IThEnd=   47 CPU=   -1 GPU=   -1 NThAct=   26.
 PrsmSu-ThDecC:  IPartSL=    7    0 NPrtUSL=   48    1 IThBeg=    0 IThEnd=   47 CPU=   -1 GPU=   -1 NThAct=   25.
 PrsmSu-ThDecC:  IPartSL=   21    0 NPrtUSL=   48    1 IThBeg=    0 IThEnd=   47 CPU=   -1 GPU=   -1 NThAct=   24.
 IPart=  1 NShTot=        1066 NBatch=          82 AvBLen=        13.0
 PrsmSu-ThDecC:  IPartSL=    1    0 NPrtUSL=   48    1 IThBeg=    0 IThEnd=   47 CPU=   -1 GPU=   -1 NThAct=   23.
 IPart=  0 NShTot=        1092 NBatch=          84 AvBLen=        13.0
 PrsmSu-ThDecC:  IPartSL=    0    0 NPrtUSL=   48    1 IThBeg=    0 IThEnd=   47 CPU=   -1 GPU=   -1 NThAct=   22.
 IPart= 31 NShTot=         585 NBatch=          45 AvBLen=        13.0
 PrsmSu-ThDecC:  IPartSL=   31    0 NPrtUSL=   48    1 IThBeg=    0 IThEnd=   47 CPU=   -1 GPU=   -1 NThAct=   21.
 IPart= 26 NShTot=         637 NBatch=          49 AvBLen=        13.0
 PrsmSu-ThDecC:  IPartSL=   26    0 NPrtUSL=   48    1 IThBeg=    0 IThEnd=   47 CPU=   -1 GPU=   -1 NThAct=   20.
 IPart= 18 NShTot=         650 NBatch=          50 AvBLen=        13.0
 PrsmSu-ThDecC:  IPartSL=   18    0 NPrtUSL=   48    1 IThBeg=    0 IThEnd=   47 CPU=   -1 GPU=   -1 NThAct=   19.
 IPart= 14 NShTot=         715 NBatch=          55 AvBLen=        13.0
 PrsmSu-ThDecC:  IPartSL=   14    0 NPrtUSL=   48    1 IThBeg=    0 IThEnd=   47 CPU=   -1 GPU=   -1 NThAct=   18.
 IPart= 15 NShTot=         715 NBatch=          55 AvBLen=        13.0
 PrsmSu-ThDecC:  IPartSL=   15    0 NPrtUSL=   48    1 IThBeg=    0 IThEnd=   47 CPU=   -1 GPU=   -1 NThAct=   17.
 IPart= 37 NShTot=         572 NBatch=          44 AvBLen=        13.0
 PrsmSu-ThDecC:  IPartSL=   37    0 NPrtUSL=   48    1 IThBeg=    0 IThEnd=   47 CPU=   -1 GPU=   -1 NThAct=   16.
 IPart= 10 NShTot=         728 NBatch=          56 AvBLen=        13.0
 PrsmSu-ThDecC:  IPartSL=   10    0 NPrtUSL=   48    1 IThBeg=    0 IThEnd=   47 CPU=   -1 GPU=   -1 NThAct=   15.
 IPart=  3 NShTot=         949 NBatch=          73 AvBLen=        13.0
 PrsmSu-ThDecC:  IPartSL=    3    0 NPrtUSL=   48    1 IThBeg=    0 IThEnd=   47 CPU=   -1 GPU=   -1 NThAct=   14.
 IPart= 27 NShTot=         624 NBatch=          48 AvBLen=        13.0
 PrsmSu-ThDecC:  IPartSL=   27    0 NPrtUSL=   48    1 IThBeg=    0 IThEnd=   47 CPU=   -1 GPU=   -1 NThAct=   13.
 IPart= 46 NShTot=         494 NBatch=          38 AvBLen=        13.0
 PrsmSu-ThDecC:  IPartSL=   46    0 NPrtUSL=   48    1 IThBeg=    0 IThEnd=   47 CPU=   -1 GPU=   -1 NThAct=   12.
 IPart= 44 NShTot=         494 NBatch=          38 AvBLen=        13.0
 PrsmSu-ThDecC:  IPartSL=   44    0 NPrtUSL=   48    1 IThBeg=    0 IThEnd=   47 CPU=   -1 GPU=   -1 NThAct=   11.
 IPart= 25 NShTot=         637 NBatch=          49 AvBLen=        13.0
 PrsmSu-ThDecC:  IPartSL=   25    0 NPrtUSL=   48    1 IThBeg=    0 IThEnd=   47 CPU=   -1 GPU=   -1 NThAct=   10.
 IPart= 39 NShTot=         546 NBatch=          42 AvBLen=        13.0
 PrsmSu-ThDecC:  IPartSL=   39    0 NPrtUSL=   48    1 IThBeg=    0 IThEnd=   47 CPU=   -1 GPU=   -1 NThAct=    9.
 IPart= 45 NShTot=         494 NBatch=          38 AvBLen=        13.0
 PrsmSu-ThDecC:  IPartSL=   45    0 NPrtUSL=   48    1 IThBeg=    0 IThEnd=   47 CPU=   -1 GPU=   -1 NThAct=    8.
 IPart=  4 NShTot=         897 NBatch=          69 AvBLen=        13.0
 PrsmSu-ThDecC:  IPartSL=    4    0 NPrtUSL=   48    1 IThBeg=    0 IThEnd=   47 CPU=   -1 GPU=   -1 NThAct=    7.
 IPart= 17 NShTot=         676 NBatch=          52 AvBLen=        13.0
 PrsmSu-ThDecC:  IPartSL=   17    0 NPrtUSL=   48    1 IThBeg=    0 IThEnd=   47 CPU=   -1 GPU=   -1 NThAct=    6.
 IPart=  6 NShTot=         832 NBatch=          64 AvBLen=        13.0
 IPart= 12 NShTot=         715 NBatch=          55 AvBLen=        13.0
 PrsmSu-ThDecC:  IPartSL=    6    0 NPrtUSL=   48    1 IThBeg=    0 IThEnd=   47 CPU=   -1 GPU=   -1 NThAct=    5.
 IPart= 11 NShTot=         715 NBatch=          55 AvBLen=        13.0
 PrsmSu-ThDecC:  IPartSL=   12    0 NPrtUSL=   48    1 IThBeg=    0 IThEnd=   47 CPU=   -1 GPU=   -1 NThAct=    4.
 PrsmSu-ThDecC:  IPartSL=   11    0 NPrtUSL=   48    1 IThBeg=    0 IThEnd=   47 CPU=   -1 GPU=   -1 NThAct=    3.
 IPart= 40 NShTot=         546 NBatch=          42 AvBLen=        13.0
 PrsmSu-ThDecC:  IPartSL=   40    0 NPrtUSL=   48    1 IThBeg=    0 IThEnd=   47 CPU=   -1 GPU=   -1 NThAct=    2.
 IPart=  2 NShTot=        1001 NBatch=          77 AvBLen=        13.0
 PrsmSu-ThDecC:  IPartSL=    2    0 NPrtUSL=   48    1 IThBeg=    0 IThEnd=   47 CPU=   -1 GPU=   -1 NThAct=    1.
 PrSmSu:  NxtVal=            289.
 --------------------------------------------------------
       Center         ----      EFG at Nuclei      ----
                      3XX-RR        3YY-RR        3ZZ-RR
 --------------------------------------------------------
     1   Atom       -0.259344      0.089315      0.170029
     2   Atom        0.115905      0.102775     -0.218680
     3   Atom        0.141896     -0.314826      0.172930
     4   Atom       -0.072327      0.250297     -0.177969
     5   Atom        0.121253     -0.292343      0.171090
     6   Atom       -0.327760     -0.195753      0.523513
     7   Atom        0.103502     -0.045168     -0.058334
     8   Atom        0.008134     -0.186532      0.178398
     9   Atom        0.184057      0.365288     -0.549345
    10   Atom        0.180473     -0.027572     -0.152901
    11   Atom       -0.269739      0.095632      0.174107
    12   Atom       -0.012509      0.037918     -0.025409
    13   Atom        0.132250     -0.314535      0.182285
 --------------------------------------------------------
                        XY            XZ            YZ
 --------------------------------------------------------
     1   Atom        0.150624      0.005423     -0.001941
     2   Atom        0.025892     -0.002522     -0.000005
     3   Atom        0.054664      0.000314     -0.000072
     4   Atom        0.184589     -0.001314     -0.001083
     5   Atom        0.079355      0.000780     -0.003196
     6   Atom        0.029475      0.009981      0.000509
     7   Atom        0.188986      0.003488      0.001087
     8   Atom       -0.211229     -0.003611     -0.005568
     9   Atom       -0.648379      0.004191     -0.005643
    10   Atom       -0.014561      0.002905      0.001952
    11   Atom       -0.148411     -0.007720     -0.002352
    12   Atom       -0.232330      0.003521     -0.000871
    13   Atom        0.072980     -0.000570      0.002825
 --------------------------------------------------------


 ---------------------------------------------------------------------------------
              Nuclear Quadrupole Coupling Constant in Principal Axis System
 ---------------------------------------------------------------------------------

       Atom             a.u.   MegaHertz   Gauss  10(-4) cm-1        Axes

              Baa    -0.3342     1.605     0.573     0.535  0.9780 -0.2082 -0.0113
     6 N(14)  Bbb    -0.1895     0.910     0.325     0.304  0.2082  0.9781 -0.0036
              Bcc     0.5236    -2.515    -0.897    -0.839  0.0118  0.0012  0.9999
 
              Baa    -0.5494     2.638     0.941     0.880 -0.0007  0.0057  1.0000
     9 N(14)  Bbb    -0.3800     1.825     0.651     0.609  0.7545  0.6563 -0.0032
              Bcc     0.9294    -4.464    -1.593    -1.489 -0.6563  0.7545 -0.0047
 

 ---------------------------------------------------------------------------------

 No NMR shielding tensors so no spin-rotation constants.
 Leave Link  601 at Thu Apr 21 16:27:44 2022, MaxMem= 25769803776 cpu:              15.9 elap:               0.4
 Calling FoFJK, ICntrl=      2127 FMM=F ISym2X=0 I1Cent= 0 IOpClX= 0 NMat=1 NMatS=1 NMatT=0.
 ***** Axes restored to original set *****
 -------------------------------------------------------------------
 Center     Atomic                   Forces (Hartrees/Bohr)
 Number     Number              X              Y              Z
 -------------------------------------------------------------------
      1        1           0.004592353   -0.000675668   -0.001202797
      2        6           0.004620041   -0.000575099   -0.003489867
      3        1           0.000186387   -0.000298808   -0.000962877
      4        6          -0.018734597    0.002059001    0.005375247
      5        1           0.004828595   -0.000494883    0.000618025
      6        7           0.011429767   -0.001834158    0.006510522
      7        6          -0.000462745    0.003137160    0.012041146
      8        1          -0.000029614    0.000024820   -0.002476802
      9        7          -0.010392503    0.001278111    0.007658014
     10        6          -0.000522415   -0.003075691   -0.014810876
     11        1          -0.002603535   -0.000165009    0.000670320
     12        6           0.006719040   -0.000033239   -0.012237847
     13        1           0.000369226    0.000653463    0.002307793
 -------------------------------------------------------------------
 Cartesian Forces:  Max     0.018734597 RMS     0.006010598

 GradGradGradGradGradGradGradGradGradGradGradGradGradGradGradGradGradGrad
 Berny optimization.
 FormGI is forming the generalized inverse of G from B-inverse, IUseBI=4.
 Internal  Forces:  Max     0.013239601 RMS     0.003757231
 Search for a local minimum.
 Step number   1 out of a maximum of   66
 All quantities printed in internal units (Hartrees-Bohrs-Radians)
 Mixed Optimization -- RFO/linear search
 Second derivative matrix not updated -- first step.
 ITU=  0
     Eigenvalues ---    0.01765   0.01898   0.02077   0.02184   0.02260
     Eigenvalues ---    0.02342   0.02352   0.02424   0.02876   0.02876
     Eigenvalues ---    0.15998   0.16000   0.16000   0.16000   0.16000
     Eigenvalues ---    0.16000   0.22000   0.22670   0.23409   0.25000
     Eigenvalues ---    0.35138   0.35150   0.35526   0.35711   0.35850
     Eigenvalues ---    0.35944   0.43412   0.45758   0.46550   0.49644
     Eigenvalues ---    0.50948   0.57097   0.60566
 RFO step:  Lambda=-2.51961321D-03 EMin= 1.76499506D-02
 Linear search not attempted -- first point.
 Iteration  1 RMS(Cart)=  0.02524840 RMS(Int)=  0.00034848
 Iteration  2 RMS(Cart)=  0.00035246 RMS(Int)=  0.00021626
 Iteration  3 RMS(Cart)=  0.00000006 RMS(Int)=  0.00021626
 Variable       Old X    -DE/DX   Delta X   Delta X   Delta X     New X
                                 (Linear)    (Quad)   (Total)
    R1        2.05431  -0.00445   0.00000  -0.01256  -0.01256   2.04175
    R2        2.04830  -0.00087   0.00000  -0.00242  -0.00242   2.04588
    R3        2.53314  -0.01028   0.00000  -0.01793  -0.01793   2.51521
    R4        2.05451  -0.00252   0.00000  -0.00713  -0.00713   2.04739
    R5        2.63516   0.00450   0.00000   0.00961   0.00961   2.64477
    R6        2.60857  -0.00123   0.00000  -0.00295  -0.00298   2.60559
    R7        2.60719   0.00886   0.00000   0.01801   0.01795   2.62514
    R8        2.04316  -0.00231   0.00000  -0.00640  -0.00640   2.03676
    R9        2.48496  -0.00466   0.00000  -0.00763  -0.00760   2.47736
   R10        2.58032   0.01324   0.00000   0.02564   0.02569   2.60600
   R11        2.04535  -0.00252   0.00000  -0.00700  -0.00700   2.03836
   R12        2.59565  -0.00689   0.00000  -0.01314  -0.01313   2.58252
   R13        2.04169  -0.00233   0.00000  -0.00644  -0.00644   2.03525
    A1        2.03654   0.00159   0.00000   0.00978   0.00978   2.04632
    A2        2.09722  -0.00209   0.00000  -0.01283  -0.01283   2.08439
    A3        2.14940   0.00050   0.00000   0.00309   0.00308   2.15248
    A4        2.07310   0.00548   0.00000   0.03179   0.03178   2.10488
    A5        2.21472  -0.00236   0.00000  -0.01062  -0.01062   2.20410
    A6        1.99534  -0.00312   0.00000  -0.02113  -0.02114   1.97421
    A7        2.25492  -0.00379   0.00000  -0.01536  -0.01527   2.23965
    A8        2.19471  -0.00374   0.00000  -0.01520  -0.01509   2.17961
    A9        1.83355   0.00753   0.00000   0.03050   0.03018   1.86372
   A10        2.13324   0.00286   0.00000   0.01144   0.01148   2.14472
   A11        1.97016  -0.00737   0.00000  -0.03305  -0.03329   1.93687
   A12        2.17979   0.00451   0.00000   0.02163   0.02166   2.20144
   A13        1.83167   0.00613   0.00000   0.02604   0.02587   1.85755
   A14        2.11846   0.00221   0.00000   0.00994   0.00998   2.12845
   A15        1.93232  -0.00261   0.00000  -0.00875  -0.00890   1.92342
   A16        2.23240   0.00040   0.00000  -0.00117  -0.00112   2.23128
   A17        1.85685  -0.00366   0.00000  -0.01367  -0.01404   1.84281
   A18        2.12747   0.00122   0.00000   0.00324   0.00324   2.13070
   A19        2.29880   0.00244   0.00000   0.01076   0.01073   2.30953
    D1        0.00066   0.00005   0.00000   0.00079   0.00074   0.00140
    D2        3.13457   0.00021   0.00000   0.00744   0.00749  -3.14113
    D3       -3.13372  -0.00019   0.00000  -0.00688  -0.00692  -3.14064
    D4        0.00019  -0.00003   0.00000  -0.00022  -0.00018   0.00001
    D5        0.00003  -0.00024   0.00000  -0.01011  -0.01006  -0.01003
    D6       -3.13639   0.00016   0.00000   0.00870   0.00874  -3.12765
    D7        3.13424  -0.00006   0.00000  -0.00351  -0.00355   3.13069
    D8       -0.00219   0.00035   0.00000   0.01530   0.01525   0.01307
    D9        0.02107  -0.00016   0.00000  -0.00688  -0.00678   0.01429
   D10       -3.11924  -0.00065   0.00000  -0.02647  -0.02606   3.13789
   D11       -3.12486  -0.00052   0.00000  -0.02277  -0.02298   3.13534
   D12        0.01801  -0.00101   0.00000  -0.04236  -0.04225  -0.02424
   D13        3.11764   0.00068   0.00000   0.03071   0.03090  -3.13464
   D14       -0.01303   0.00002   0.00000   0.00353   0.00388  -0.00915
   D15       -0.01981   0.00103   0.00000   0.04589   0.04640   0.02659
   D16        3.13271   0.00037   0.00000   0.01871   0.01937  -3.13110
   D17       -0.00819   0.00048   0.00000   0.01978   0.01951   0.01133
   D18        3.13473  -0.00003   0.00000  -0.00042  -0.00052   3.13421
   D19        3.13775   0.00000   0.00000   0.00110   0.00147   3.13922
   D20       -0.00517   0.00026   0.00000   0.01143   0.01142   0.00626
   D21        0.01613  -0.00096   0.00000  -0.03744  -0.03682  -0.02069
   D22       -3.13789  -0.00022   0.00000  -0.00662  -0.00594   3.13936
   D23       -3.12689  -0.00067   0.00000  -0.02626  -0.02612   3.13017
   D24        0.00228   0.00006   0.00000   0.00456   0.00476   0.00703
         Item               Value     Threshold  Converged?
 Maximum Force            0.013240     0.000450     NO 
 RMS     Force            0.003757     0.000300     NO 
 Maximum Displacement     0.075749     0.001800     NO 
 RMS     Displacement     0.025341     0.001200     NO 
 Predicted change in Energy=-1.282143D-03
 GradGradGradGradGradGradGradGradGradGradGradGradGradGradGradGradGradGrad

                          Input orientation:                          
 ---------------------------------------------------------------------
 Center     Atomic      Atomic             Coordinates (Angstroms)
 Number     Number       Type             X           Y           Z
 ---------------------------------------------------------------------
      1          1           0        1.018099   -0.309350    0.024257
      2          6           0        2.089259   -0.357098    0.157331
      3          1           0        2.470017   -0.228746    1.162636
      4          6           0        2.870759   -0.567454   -0.899338
      5          1           0        2.442067   -0.689149   -1.886878
      6          7           0        4.267515   -0.655541   -0.892068
      7          6           0        5.126140   -0.536553    0.180197
      8          1           0        4.783892   -0.364461    1.187627
      9          7           0        6.372746   -0.682223   -0.198451
     10          6           0        6.344683   -0.889391   -1.561551
     11          1           0        7.246062   -1.038485   -2.134940
     12          6           0        5.056486   -0.860622   -2.016898
     13          1           0        4.631974   -0.977229   -2.999822
 ---------------------------------------------------------------------
                    Distance matrix (angstroms):
                    1          2          3          4          5
     1  H    0.000000
     2  C    1.080450   0.000000
     3  H    1.846746   1.082631   0.000000
     4  C    2.086144   1.330993   2.127688   0.000000
     5  H    2.413373   2.100838   3.084199   1.083430   0.000000
     6  N    3.393848   2.436207   2.763143   1.399550   2.079191
     7  C    4.117274   3.042265   2.848670   2.500619   3.391214
     8  H    3.941785   2.884894   2.317986   2.838435   3.878421
     9  N    5.372232   4.310516   4.158063   3.573280   4.277975
    10  C    5.587820   4.620230   4.782330   3.551101   3.921268
    11  H    6.631840   5.684313   5.860059   4.570761   4.823063
    12  C    4.558375   3.712848   4.147110   2.472304   2.623260
    13  H    4.759329   4.100924   4.749773   2.771611   2.473323
                    6          7          8          9         10
     6  N    0.000000
     7  C    1.378821   0.000000
     8  H    2.162524   1.077806   0.000000
     9  N    2.216713   1.310962   2.132286   0.000000
    10  C    2.194885   2.154768   3.204622   1.379038   0.000000
    11  H    3.250095   3.178972   4.189993   2.153971   1.078651
    12  C    1.389163   2.221958   3.254146   2.251914   1.366609
    13  H    2.163086   3.248218   4.234773   3.311344   2.238239
                   11         12         13
    11  H    0.000000
    12  C    2.199958   0.000000
    13  H    2.754130   1.077009   0.000000
 Stoichiometry    C5H6N2
 Framework group  C1[X(C5H6N2)]
 Deg. of freedom    33
 Full point group                 C1      NOp   1
 Largest Abelian subgroup         C1      NOp   1
 Largest concise Abelian subgroup C1      NOp   1
                         Standard orientation:                         
 ---------------------------------------------------------------------
 Center     Atomic      Atomic             Coordinates (Angstroms)
 Number     Number       Type             X           Y           Z
 ---------------------------------------------------------------------
      1          1           0       -3.599500    0.083388   -0.001008
      2          6           0       -2.590227   -0.302281   -0.001063
      3          1           0       -2.470819   -1.378305    0.000313
      4          6           0       -1.565571    0.547199   -0.003279
      5          1           0       -1.736159    1.617115   -0.003710
      6          7           0       -0.207917    0.207324   -0.004191
      7          6           0        0.358812   -1.049586    0.007817
      8          1           0       -0.225751   -1.955098    0.006961
      9          7           0        1.667575   -0.974344   -0.002074
     10          6           0        1.981034    0.368590   -0.006198
     11          1           0        3.002049    0.716416   -0.012125
     12          6           0        0.839488    1.119756    0.009371
     13          1           0        0.671366    2.183554    0.013539
 ---------------------------------------------------------------------
 Rotational constants (GHZ):           8.1386628           2.1206922           1.6823625
 Standard basis: 6-311++G(d,p) (5D, 7F)
 There are   203 symmetry adapted cartesian basis functions of A   symmetry.
 There are   196 symmetry adapted basis functions of A   symmetry.
   196 basis functions,   306 primitive gaussians,   203 cartesian basis functions
    25 alpha electrons       25 beta electrons
       nuclear repulsion energy       275.1676010305 Hartrees.
 NAtoms=   13 NActive=   13 NUniq=   13 SFac= 1.00D+00 NAtFMM=   60 NAOKFM=F Big=F
 Integral buffers will be    131072 words long.
 Raffenetti 2 integral format.
 Two-electron integral symmetry is turned on.
 Nuclear repulsion after empirical dispersion term =      275.1480406034 Hartrees.
 One-electron integrals computed using PRISM.
 NBasis=   196 RedAO= T EigKep=  8.43D-06  NBF=   196
 NBsUse=   196 1.00D-06 EigRej= -1.00D+00 NBFU=   196
 Initial guess from the checkpoint file:  "1VI-1.chk"
 B after Tr=    -0.000000    0.000000   -0.000000
         Rot=    0.999995    0.000023   -0.000003    0.003116 Ang=   0.36 deg.
 ExpMin= 3.60D-02 ExpMax= 6.29D+03 ExpMxC= 9.49D+02 IAcc=3 IRadAn=         5 AccDes= 0.00D+00
 Harris functional with IExCor=  402 and IRadAn=       5 diagonalized for initial guess.
 HarFok:  IExCor=  402 AccDes= 0.00D+00 IRadAn=         5 IDoV= 1 UseB2=F ITyADJ=14
 ICtDFT=  3500011 ScaDFX=  1.000000  1.000000  1.000000  1.000000
 FoFCou: FMM=F IPFlag=           0 FMFlag=      100000 FMFlg1=           0
         NFxFlg=           0 DoJE=T BraDBF=F KetDBF=T FulRan=T
         wScrn=  0.000000 ICntrl=       500 IOpCl=  0 I1Cent=   200000004 NGrid=           0
         NMat0=    1 NMatS0=      1 NMatT0=    0 NMatD0=    1 NMtDS0=    0 NMtDT0=    0
 Petite list used in FoFCou.
 Requested convergence on RMS density matrix=1.00D-08 within 128 cycles.
 Requested convergence on MAX density matrix=1.00D-06.
 Requested convergence on             energy=1.00D-06.
 No special actions if energy rises.
 SCF Done:  E(RB3LYP) =  -303.713034167     A.U. after   11 cycles
            NFock= 11  Conv=0.45D-08     -V/T= 2.0043
 Calling FoFJK, ICntrl=      2127 FMM=F ISym2X=0 I1Cent= 0 IOpClX= 0 NMat=1 NMatS=1 NMatT=0.
 ***** Axes restored to original set *****
 -------------------------------------------------------------------
 Center     Atomic                   Forces (Hartrees/Bohr)
 Number     Number              X              Y              Z
 -------------------------------------------------------------------
      1        1          -0.000262191   -0.000021414   -0.000140562
      2        6           0.000138228    0.000037129    0.000981515
      3        1           0.000016849   -0.000073536   -0.000395520
      4        6          -0.004934861    0.000660970   -0.000474725
      5        1           0.000770303   -0.000177143   -0.000267556
      6        7          -0.001599797    0.003354385    0.000478194
      7        6           0.003374518   -0.003875774   -0.007370712
      8        1           0.000107599   -0.000015088   -0.000603992
      9        7           0.003095930    0.000770843    0.004101750
     10        6          -0.001445390    0.001620927   -0.000547295
     11        1           0.000216146    0.000321371    0.000971049
     12        6           0.001448974   -0.002544306    0.002594116
     13        1          -0.000926306   -0.000058364    0.000673739
 -------------------------------------------------------------------
 Cartesian Forces:  Max     0.007370712 RMS     0.002099020

 GradGradGradGradGradGradGradGradGradGradGradGradGradGradGradGradGradGrad
 Berny optimization.
 Using GEDIIS/GDIIS optimizer.
 FormGI is forming the generalized inverse of G from B-inverse, IUseBI=4.
 Internal  Forces:  Max     0.005293113 RMS     0.001482493
 Search for a local minimum.
 Step number   2 out of a maximum of   66
 All quantities printed in internal units (Hartrees-Bohrs-Radians)
 Mixed Optimization -- RFO/linear search
 Update second derivatives using D2CorX and points    1    2
 DE= -8.57D-04 DEPred=-1.28D-03 R= 6.69D-01
 TightC=F SS=  1.41D+00  RLast= 1.33D-01 DXNew= 5.0454D-01 3.9965D-01
 Trust test= 6.69D-01 RLast= 1.33D-01 DXMaxT set to 4.00D-01
 ITU=  1  0
 Use linear search instead of GDIIS.
     Eigenvalues ---    0.01765   0.01898   0.02180   0.02234   0.02330
     Eigenvalues ---    0.02355   0.02410   0.02455   0.02876   0.02876
     Eigenvalues ---    0.14759   0.15997   0.15998   0.16000   0.16000
     Eigenvalues ---    0.16118   0.21928   0.22675   0.24914   0.31314
     Eigenvalues ---    0.34750   0.35154   0.35528   0.35592   0.35798
     Eigenvalues ---    0.35926   0.42959   0.44457   0.45812   0.49858
     Eigenvalues ---    0.52232   0.56783   0.60306
 RFO step:  Lambda=-2.99987517D-04 EMin= 1.76513134D-02
 Quartic linear search produced a step of -0.24182.
 Iteration  1 RMS(Cart)=  0.01322810 RMS(Int)=  0.00012301
 Iteration  2 RMS(Cart)=  0.00014359 RMS(Int)=  0.00005971
 Iteration  3 RMS(Cart)=  0.00000001 RMS(Int)=  0.00005971
 Variable       Old X    -DE/DX   Delta X   Delta X   Delta X     New X
                                 (Linear)    (Quad)   (Total)
    R1        2.04175   0.00028   0.00304  -0.00403  -0.00099   2.04077
    R2        2.04588  -0.00037   0.00059  -0.00168  -0.00109   2.04478
    R3        2.51521   0.00041   0.00434  -0.00605  -0.00171   2.51350
    R4        2.04739  -0.00004   0.00172  -0.00271  -0.00099   2.04640
    R5        2.64477   0.00429  -0.00232   0.01052   0.00820   2.65296
    R6        2.60559  -0.00023   0.00072  -0.00170  -0.00097   2.60462
    R7        2.62514  -0.00143  -0.00434   0.00442   0.00004   2.62518
    R8        2.03676  -0.00060   0.00155  -0.00363  -0.00208   2.03468
    R9        2.47736  -0.00083   0.00184  -0.00392  -0.00205   2.47531
   R10        2.60600  -0.00055  -0.00621   0.00877   0.00258   2.60859
   R11        2.03836  -0.00038   0.00169  -0.00338  -0.00169   2.03667
   R12        2.58252   0.00105   0.00318  -0.00299   0.00016   2.58268
   R13        2.03525  -0.00024   0.00156  -0.00288  -0.00133   2.03393
    A1        2.04632   0.00018  -0.00236   0.00447   0.00211   2.04843
    A2        2.08439  -0.00004   0.00310  -0.00495  -0.00184   2.08255
    A3        2.15248  -0.00014  -0.00074   0.00047  -0.00027   2.15220
    A4        2.10488   0.00074  -0.00769   0.01538   0.00770   2.11258
    A5        2.20410   0.00021   0.00257  -0.00320  -0.00063   2.20347
    A6        1.97421  -0.00095   0.00511  -0.01218  -0.00707   1.96713
    A7        2.23965   0.00285   0.00369   0.00355   0.00724   2.24689
    A8        2.17961   0.00103   0.00365  -0.00191   0.00175   2.18136
    A9        1.86372  -0.00386  -0.00730  -0.00134  -0.00879   1.85493
   A10        2.14472  -0.00274  -0.00277  -0.00452  -0.00736   2.13736
   A11        1.93687   0.00529   0.00805   0.00469   0.01262   1.94948
   A12        2.20144  -0.00254  -0.00524   0.00018  -0.00513   2.19632
   A13        1.85755  -0.00392  -0.00626  -0.00315  -0.00945   1.84809
   A14        2.12845  -0.00147  -0.00241  -0.00272  -0.00512   2.12333
   A15        1.92342   0.00099   0.00215   0.00043   0.00248   1.92590
   A16        2.23128   0.00048   0.00027   0.00238   0.00267   2.23394
   A17        1.84281   0.00154   0.00340   0.00025   0.00345   1.84626
   A18        2.13070  -0.00189  -0.00078  -0.00667  -0.00746   2.12324
   A19        2.30953   0.00036  -0.00259   0.00672   0.00412   2.31365
    D1        0.00140  -0.00004  -0.00018  -0.00115  -0.00132   0.00008
    D2       -3.14113   0.00007  -0.00181   0.00504   0.00322  -3.13790
    D3       -3.14064  -0.00007   0.00167  -0.00471  -0.00304   3.13951
    D4        0.00001   0.00005   0.00004   0.00147   0.00151   0.00153
    D5       -0.01003   0.00025   0.00243   0.00620   0.00866  -0.00137
    D6       -3.12765  -0.00042  -0.00211  -0.01255  -0.01470   3.14084
    D7        3.13069   0.00036   0.00086   0.01200   0.01289  -3.13960
    D8        0.01307  -0.00031  -0.00369  -0.00676  -0.01047   0.00260
    D9        0.01429  -0.00023   0.00164  -0.01013  -0.00851   0.00578
   D10        3.13789   0.00056   0.00630   0.01012   0.01636  -3.12894
   D11        3.13534   0.00038   0.00556   0.00592   0.01151  -3.13633
   D12       -0.02424   0.00117   0.01022   0.02617   0.03638   0.01214
   D13       -3.13464  -0.00075  -0.00747  -0.01367  -0.02114   3.12741
   D14       -0.00915   0.00005  -0.00094   0.00307   0.00198  -0.00717
   D15        0.02659  -0.00137  -0.01122  -0.02910  -0.04028  -0.01369
   D16       -3.13110  -0.00057  -0.00468  -0.01236  -0.01717   3.13491
   D17        0.01133  -0.00051  -0.00472  -0.01185  -0.01659  -0.00526
   D18        3.13421   0.00032   0.00013   0.00915   0.00928  -3.13969
   D19        3.13922   0.00004  -0.00036   0.00357   0.00310  -3.14087
   D20        0.00626  -0.00034  -0.00276  -0.00733  -0.01012  -0.00387
   D21       -0.02069   0.00101   0.00890   0.02294   0.03180   0.01111
   D22        3.13936   0.00013   0.00144   0.00395   0.00524  -3.13859
   D23        3.13017   0.00061   0.00632   0.01126   0.01757  -3.13544
   D24        0.00703  -0.00027  -0.00115  -0.00773  -0.00899  -0.00195
         Item               Value     Threshold  Converged?
 Maximum Force            0.005293     0.000450     NO 
 RMS     Force            0.001482     0.000300     NO 
 Maximum Displacement     0.047010     0.001800     NO 
 RMS     Displacement     0.013215     0.001200     NO 
 Predicted change in Energy=-2.467105D-04
 GradGradGradGradGradGradGradGradGradGradGradGradGradGradGradGradGradGrad

                          Input orientation:                          
 ---------------------------------------------------------------------
 Center     Atomic      Atomic             Coordinates (Angstroms)
 Number     Number       Type             X           Y           Z
 ---------------------------------------------------------------------
      1          1           0        1.014650   -0.301420    0.022238
      2          6           0        2.085034   -0.350318    0.156876
      3          1           0        2.466207   -0.224692    1.161744
      4          6           0        2.865438   -0.560926   -0.899412
      5          1           0        2.444093   -0.683607   -1.889414
      6          7           0        4.266172   -0.654597   -0.891139
      7          6           0        5.131133   -0.552200    0.177077
      8          1           0        4.788764   -0.382594    1.183711
      9          7           0        6.380067   -0.677659   -0.197353
     10          6           0        6.346962   -0.877504   -1.562813
     11          1           0        7.249066   -1.013608   -2.136613
     12          6           0        5.056216   -0.876385   -2.012068
     13          1           0        4.625898   -1.000789   -2.990734
 ---------------------------------------------------------------------
                    Distance matrix (angstroms):
                    1          2          3          4          5
     1  H    0.000000
     2  C    1.079927   0.000000
     3  H    1.846992   1.082051   0.000000
     4  C    2.083794   1.330086   2.126218   0.000000
     5  H    2.417393   2.104117   3.085557   1.082907   0.000000
     6  N    3.395790   2.438910   2.763879   1.403887   2.077828
     7  C    4.127021   3.052848   2.859836   2.508441   3.392320
     8  H    3.949626   2.892332   2.328022   2.840843   3.877137
     9  N    5.383073   4.322029   4.167809   3.585963   4.284273
    10  C    5.592657   4.625936   4.786402   3.558277   3.921307
    11  H    6.635947   5.689223   5.863215   4.577312   4.822631
    12  C    4.561057   3.716044   4.148004   2.477302   2.622097
    13  H    4.754811   4.097139   4.744436   2.768813   2.464504
                    6          7          8          9         10
     6  N    0.000000
     7  C    1.378306   0.000000
     8  H    2.156871   1.076706   0.000000
     9  N    2.224954   1.309876   2.127592   0.000000
    10  C    2.197844   2.147389   3.196297   1.380404   0.000000
    11  H    3.252345   3.170441   4.180409   2.151452   1.077757
    12  C    1.389187   2.214286   3.244744   2.255052   1.366695
    13  H    2.158136   3.239061   4.223113   3.314287   2.239691
                   11         12         13
    11  H    0.000000
    12  C    2.200666   0.000000
    13  H    2.758749   1.076307   0.000000
 Stoichiometry    C5H6N2
 Framework group  C1[X(C5H6N2)]
 Deg. of freedom    33
 Full point group                 C1      NOp   1
 Largest Abelian subgroup         C1      NOp   1
 Largest concise Abelian subgroup C1      NOp   1
                         Standard orientation:                         
 ---------------------------------------------------------------------
 Center     Atomic      Atomic             Coordinates (Angstroms)
 Number     Number       Type             X           Y           Z
 ---------------------------------------------------------------------
      1          1           0       -3.603690    0.077874    0.005285
      2          6           0       -2.594607   -0.306823    0.004139
      3          1           0       -2.472157   -1.381922    0.002617
      4          6           0       -1.572876    0.544758    0.002286
      5          1           0       -1.737948    1.615010    0.001985
      6          7           0       -0.210350    0.206542   -0.003540
      7          6           0        0.367709   -1.044682   -0.007065
      8          1           0       -0.214628   -1.950312   -0.010822
      9          7           0        1.675632   -0.973903    0.003119
     10          6           0        1.981214    0.372247    0.006838
     11          1           0        3.001034    0.720773    0.014408
     12          6           0        0.836859    1.119332   -0.006210
     13          1           0        0.660627    2.181105   -0.010459
 ---------------------------------------------------------------------
 Rotational constants (GHZ):           8.1567763           2.1119352           1.6776096
 Standard basis: 6-311++G(d,p) (5D, 7F)
 There are   203 symmetry adapted cartesian basis functions of A   symmetry.
 There are   196 symmetry adapted basis functions of A   symmetry.
   196 basis functions,   306 primitive gaussians,   203 cartesian basis functions
    25 alpha electrons       25 beta electrons
       nuclear repulsion energy       275.0116459131 Hartrees.
 NAtoms=   13 NActive=   13 NUniq=   13 SFac= 1.00D+00 NAtFMM=   60 NAOKFM=F Big=F
 Integral buffers will be    131072 words long.
 Raffenetti 2 integral format.
 Two-electron integral symmetry is turned on.
 Nuclear repulsion after empirical dispersion term =      274.9921345984 Hartrees.
 One-electron integrals computed using PRISM.
 NBasis=   196 RedAO= T EigKep=  8.38D-06  NBF=   196
 NBsUse=   196 1.00D-06 EigRej= -1.00D+00 NBFU=   196
 Initial guess from the checkpoint file:  "1VI-1.chk"
 B after Tr=     0.000000   -0.000000   -0.000000
         Rot=    0.999999   -0.000001   -0.000000   -0.001127 Ang=  -0.13 deg.
 ExpMin= 3.60D-02 ExpMax= 6.29D+03 ExpMxC= 9.49D+02 IAcc=3 IRadAn=         5 AccDes= 0.00D+00
 Harris functional with IExCor=  402 and IRadAn=       5 diagonalized for initial guess.
 HarFok:  IExCor=  402 AccDes= 0.00D+00 IRadAn=         5 IDoV= 1 UseB2=F ITyADJ=14
 ICtDFT=  3500011 ScaDFX=  1.000000  1.000000  1.000000  1.000000
 FoFCou: FMM=F IPFlag=           0 FMFlag=      100000 FMFlg1=           0
         NFxFlg=           0 DoJE=T BraDBF=F KetDBF=T FulRan=T
         wScrn=  0.000000 ICntrl=       500 IOpCl=  0 I1Cent=   200000004 NGrid=           0
         NMat0=    1 NMatS0=      1 NMatT0=    0 NMatD0=    1 NMtDS0=    0 NMtDT0=    0
 Petite list used in FoFCou.
 Requested convergence on RMS density matrix=1.00D-08 within 128 cycles.
 Requested convergence on MAX density matrix=1.00D-06.
 Requested convergence on             energy=1.00D-06.
 No special actions if energy rises.
 SCF Done:  E(RB3LYP) =  -303.713248826     A.U. after   10 cycles
            NFock= 10  Conv=0.41D-08     -V/T= 2.0043
 Calling FoFJK, ICntrl=      2127 FMM=F ISym2X=0 I1Cent= 0 IOpClX= 0 NMat=1 NMatS=1 NMatT=0.
 ***** Axes restored to original set *****
 -------------------------------------------------------------------
 Center     Atomic                   Forces (Hartrees/Bohr)
 Number     Number              X              Y              Z
 -------------------------------------------------------------------
      1        1          -0.000668719    0.000152307   -0.000018868
      2        6          -0.000012313    0.000093205    0.000795564
      3        1           0.000116533    0.000018681   -0.000062567
      4        6          -0.000615340   -0.000679685   -0.000569859
      5        1           0.000088449    0.000033051   -0.000307956
      6        7          -0.000279902   -0.001104897    0.000961302
      7        6           0.000752091    0.000737092   -0.002775335
      8        1          -0.000150459    0.000117444    0.000480310
      9        7           0.000620925   -0.000061583    0.001072876
     10        6          -0.000935718   -0.000909478   -0.000465513
     11        1           0.000439874   -0.000135904    0.000201192
     12        6           0.001028052    0.001561672    0.000913054
     13        1          -0.000383472    0.000178095   -0.000224200
 -------------------------------------------------------------------
 Cartesian Forces:  Max     0.002775335 RMS     0.000750588

 GradGradGradGradGradGradGradGradGradGradGradGradGradGradGradGradGradGrad
 Berny optimization.
 Using GEDIIS/GDIIS optimizer.
 FormGI is forming the generalized inverse of G from B-inverse, IUseBI=4.
 Internal  Forces:  Max     0.001142584 RMS     0.000434279
 Search for a local minimum.
 Step number   3 out of a maximum of   66
 All quantities printed in internal units (Hartrees-Bohrs-Radians)
 Mixed Optimization -- En-DIIS/RFO-DIIS
 Update second derivatives using D2CorX and points    1    2    3
 DE= -2.15D-04 DEPred=-2.47D-04 R= 8.70D-01
 TightC=F SS=  1.41D+00  RLast= 8.63D-02 DXNew= 6.7213D-01 2.5901D-01
 Trust test= 8.70D-01 RLast= 8.63D-02 DXMaxT set to 4.00D-01
 ITU=  1  1  0
 Use linear search instead of GDIIS.
     Eigenvalues ---    0.01765   0.01886   0.02184   0.02240   0.02343
     Eigenvalues ---    0.02362   0.02415   0.02874   0.02876   0.04049
     Eigenvalues ---    0.13046   0.16000   0.16000   0.16000   0.16022
     Eigenvalues ---    0.16121   0.21770   0.22723   0.24753   0.26590
     Eigenvalues ---    0.35114   0.35339   0.35458   0.35698   0.35917
     Eigenvalues ---    0.36042   0.41358   0.43926   0.45777   0.49920
     Eigenvalues ---    0.51837   0.57431   0.60199
 RFO step:  Lambda=-9.49809276D-05 EMin= 1.76491760D-02
 Quartic linear search produced a step of -0.11376.
 Iteration  1 RMS(Cart)=  0.00777817 RMS(Int)=  0.00003713
 Iteration  2 RMS(Cart)=  0.00004576 RMS(Int)=  0.00001495
 Iteration  3 RMS(Cart)=  0.00000000 RMS(Int)=  0.00001495
 Variable       Old X    -DE/DX   Delta X   Delta X   Delta X     New X
                                 (Linear)    (Quad)   (Total)
    R1        2.04077   0.00067   0.00011   0.00097   0.00108   2.04185
    R2        2.04478  -0.00001   0.00012  -0.00050  -0.00038   2.04440
    R3        2.51350   0.00094   0.00019   0.00036   0.00055   2.51405
    R4        2.04640   0.00024   0.00011   0.00006   0.00017   2.04657
    R5        2.65296   0.00106  -0.00093   0.00526   0.00433   2.65729
    R6        2.60462  -0.00044   0.00011  -0.00128  -0.00117   2.60345
    R7        2.62518  -0.00016  -0.00001   0.00010   0.00009   2.62527
    R8        2.03468   0.00052   0.00024   0.00029   0.00053   2.03520
    R9        2.47531  -0.00012   0.00023  -0.00113  -0.00089   2.47442
   R10        2.60859   0.00007  -0.00029   0.00170   0.00142   2.61000
   R11        2.03667   0.00028   0.00019  -0.00013   0.00006   2.03673
   R12        2.58268  -0.00011  -0.00002  -0.00034  -0.00036   2.58232
   R13        2.03393   0.00034   0.00015   0.00015   0.00030   2.03423
    A1        2.04843   0.00003  -0.00024   0.00118   0.00094   2.04937
    A2        2.08255   0.00020   0.00021   0.00008   0.00029   2.08284
    A3        2.15220  -0.00023   0.00003  -0.00126  -0.00123   2.15098
    A4        2.11258   0.00025  -0.00088   0.00488   0.00400   2.11659
    A5        2.20347  -0.00011   0.00007  -0.00090  -0.00083   2.20264
    A6        1.96713  -0.00014   0.00080  -0.00397  -0.00317   1.96396
    A7        2.24689   0.00075  -0.00082   0.00509   0.00428   2.25117
    A8        2.18136   0.00013  -0.00020   0.00090   0.00072   2.18208
    A9        1.85493  -0.00088   0.00100  -0.00599  -0.00502   1.84991
   A10        2.13736  -0.00056   0.00084  -0.00452  -0.00368   2.13368
   A11        1.94948   0.00114  -0.00144   0.00814   0.00668   1.95616
   A12        2.19632  -0.00058   0.00058  -0.00357  -0.00298   2.19334
   A13        1.84809  -0.00077   0.00108  -0.00572  -0.00466   1.84343
   A14        2.12333  -0.00040   0.00058  -0.00390  -0.00331   2.12002
   A15        1.92590  -0.00000  -0.00028   0.00086   0.00056   1.92646
   A16        2.23394   0.00040  -0.00030   0.00306   0.00276   2.23671
   A17        1.84626   0.00052  -0.00039   0.00296   0.00253   1.84879
   A18        2.12324  -0.00055   0.00085  -0.00526  -0.00441   2.11883
   A19        2.31365   0.00003  -0.00047   0.00237   0.00190   2.31555
    D1        0.00008  -0.00003   0.00015  -0.00077  -0.00061  -0.00053
    D2       -3.13790  -0.00017  -0.00037  -0.00409  -0.00446   3.14082
    D3        3.13951   0.00010   0.00035   0.00218   0.00253  -3.14115
    D4        0.00153  -0.00004  -0.00017  -0.00115  -0.00132   0.00020
    D5       -0.00137  -0.00005  -0.00099   0.00065  -0.00035  -0.00171
    D6        3.14084   0.00025   0.00167   0.00476   0.00643  -3.13592
    D7       -3.13960  -0.00019  -0.00147  -0.00246  -0.00392   3.13966
    D8        0.00260   0.00012   0.00119   0.00165   0.00286   0.00545
    D9        0.00578   0.00002   0.00097  -0.00312  -0.00214   0.00363
   D10       -3.12894  -0.00039  -0.00186  -0.01001  -0.01188  -3.14082
   D11       -3.13633  -0.00024  -0.00131  -0.00662  -0.00792   3.13893
   D12        0.01214  -0.00065  -0.00414  -0.01351  -0.01765  -0.00552
   D13        3.12741   0.00049   0.00240   0.01208   0.01447  -3.14131
[...]
 9050 Fit       0.009774
 9051 Fit       0.013709
 9052 Fit       0.016306
 9053 Fit       0.016334
 9054 Fit       0.013778
 9055 Fit       0.009858
 9056 Fit       0.005906
 9057 Fit       0.002635
 9058 Fit       0.000209
 9059 Fit      -0.001466
 9060 Fit      -0.002554
 9061 Fit      -0.000692
 9062 Fit       0.000696
 9063 Fit       0.002561
 9064 Fit       0.004878
 9065 Fit       0.007443
 9066 Fit       0.009788
 9067 Fit       0.011239
 9068 Fit       0.011254
 9069 Fit       0.009829
 9070 Fit       0.007497
 9071 Fit       0.004933
 9072 Fit       0.002611
 9073 Fit       0.000739
 9074 Fit      -0.000657
 9075 Fit      -0.000024
 9076 Fit       0.001119
 9077 Fit       0.002552
 9078 Fit       0.004209
 9079 Fit       0.005918
 9080 Fit       0.007379
 9081 Fit       0.008241
 9082 Fit       0.008250
 9083 Fit       0.007404
 9084 Fit       0.005952
 9085 Fit       0.004247
 9086 Fit       0.002588
 9087 Fit       0.001151
 9088 Fit       0.000003
 9089 Fit       0.001467
 9090 Fit       0.002578
 9091 Fit       0.003790
 9092 Fit       0.004972
 9093 Fit       0.005935
 9094 Fit       0.006485
 9095 Fit       0.006491
 9096 Fit       0.005951
 9097 Fit       0.004995
 9098 Fit       0.003816
 9099 Fit       0.002604
 9100 Fit       0.001491
 9101 Fit       0.003544
 9102 Fit       0.004394
 9103 Fit       0.005064
 9104 Fit       0.005437
 9105 Fit       0.005440
 9106 Fit       0.005074
 9107 Fit       0.004409
 9108 Fit       0.003562
 9109 Fit       0.004521
 9110 Fit       0.004787
 9111 Fit       0.004789
 9112 Fit       0.004528
 9113 Fit      -0.026277
 9114 Fit      -0.027362
 9115 Fit      -0.027936
 9116 Fit      -0.027934
 9117 Fit      -0.027357
 9118 Fit      -0.026269
 9119 Fit      -0.021299
 9120 Fit      -0.022657
 9121 Fit      -0.023750
 9122 Fit      -0.024510
 9123 Fit      -0.024897
 9124 Fit      -0.024893
 9125 Fit      -0.024501
 9126 Fit      -0.023736
 9127 Fit      -0.022641
 9128 Fit      -0.021284
 9129 Fit      -0.017780
 9130 Fit      -0.018786
 9131 Fit      -0.019546
 9132 Fit      -0.020032
 9133 Fit      -0.020278
 9134 Fit      -0.020365
 9135 Fit      -0.020359
 9136 Fit      -0.020262
 9137 Fit      -0.020009
 9138 Fit      -0.019521
 9139 Fit      -0.018763
 9140 Fit      -0.017759
 9141 Fit      -0.014683
 9142 Fit      -0.015333
 9143 Fit      -0.015676
 9144 Fit      -0.015659
 9145 Fit      -0.015329
 9146 Fit      -0.014860
 9147 Fit      -0.014517
 9148 Fit      -0.014508
 9149 Fit      -0.014836
 9150 Fit      -0.015295
 9151 Fit      -0.015624
 9152 Fit      -0.015642
 9153 Fit      -0.015304
 9154 Fit      -0.014660
 9155 Fit      -0.012555
 9156 Fit      -0.012617
 9157 Fit      -0.012209
 9158 Fit      -0.011276
 9159 Fit      -0.009921
 9160 Fit      -0.008497
 9161 Fit      -0.007552
 9162 Fit      -0.007537
 9163 Fit      -0.008459
 9164 Fit      -0.009872
 9165 Fit      -0.011225
 9166 Fit      -0.012164
 9167 Fit      -0.012579
 9168 Fit      -0.012525
 9169 Fit      -0.010389
 9170 Fit      -0.010360
 9171 Fit      -0.009838
 9172 Fit      -0.008656
 9173 Fit      -0.006717
 9174 Fit      -0.004144
 9175 Fit      -0.001480
 9176 Fit       0.000300
 9177 Fit       0.000322
 9178 Fit      -0.001424
 9179 Fit      -0.004074
 9180 Fit      -0.006649
 9181 Fit      -0.008598
 9182 Fit      -0.009791
 9183 Fit      -0.010324
 9184 Fit      -0.010362
 9185 Fit      -0.008663
 9186 Fit      -0.008239
 9187 Fit      -0.007196
 9188 Fit      -0.005306
 9189 Fit      -0.002392
 9190 Fit       0.001464
 9191 Fit       0.005548
 9192 Fit       0.005626
 9193 Fit       0.001558
 9194 Fit      -0.002306
 9195 Fit      -0.005235
 9196 Fit      -0.007140
 9197 Fit      -0.008197
 9198 Fit      -0.008632
 9199 Fit      -0.007040
 9200 Fit      -0.006305
 9201 Fit      -0.004867
 9202 Fit      -0.002454
 9203 Fit       0.001184
 9204 Fit       0.006024
 9205 Fit       0.006135
 9206 Fit       0.001284
 9207 Fit      -0.002374
 9208 Fit      -0.004806
 9209 Fit      -0.006259
 9210 Fit      -0.007006
 9211 Fit      -0.005572
 9212 Fit      -0.004633
 9213 Fit      -0.002977
 9214 Fit      -0.000332
 9215 Fit       0.003553
 9216 Fit       0.008649
 9217 Fit       0.008763
 9218 Fit       0.003655
 9219 Fit      -0.000250
 9220 Fit      -0.002915
 9221 Fit      -0.004586
 9222 Fit      -0.005537
 9223 Fit      -0.004287
 9224 Fit      -0.003256
 9225 Fit      -0.001565
 9226 Fit       0.001003
 9227 Fit       0.004619
 9228 Fit       0.009174
 9229 Fit       0.013874
 9230 Fit       0.013958
 9231 Fit       0.009274
 9232 Fit       0.004711
 9233 Fit       0.001079
 9234 Fit      -0.001506
 9235 Fit      -0.003210
 9236 Fit      -0.004252
 9237 Fit      -0.003187
 9238 Fit      -0.002157
 9239 Fit      -0.000576
 9240 Fit       0.001694
 9241 Fit       0.004713
 9242 Fit       0.008299
 9243 Fit       0.011799
 9244 Fit       0.014069
 9245 Fit       0.014094
 9246 Fit       0.011861
 9247 Fit       0.008377
 9248 Fit       0.004788
 9249 Fit       0.001758
 9250 Fit      -0.000524
 9251 Fit      -0.002116
 9252 Fit      -0.003155
 9253 Fit      -0.001293
 9254 Fit       0.000098
 9255 Fit       0.001978
 9256 Fit       0.004328
 9257 Fit       0.006943
 9258 Fit       0.009342
 9259 Fit       0.010831
 9260 Fit       0.010847
 9261 Fit       0.009385
 9262 Fit       0.006999
 9263 Fit       0.004385
 9264 Fit       0.002030
 9265 Fit       0.000142
 9266 Fit      -0.001257
 9267 Fit      -0.000609
 9268 Fit       0.000569
 9269 Fit       0.002071
 9270 Fit       0.003835
 9271 Fit       0.005682
 9272 Fit       0.007284
 9273 Fit       0.008239
 9274 Fit       0.008249
 9275 Fit       0.007312
 9276 Fit       0.005720
 9277 Fit       0.003877
 9278 Fit       0.002111
 9279 Fit       0.000605
 9280 Fit      -0.000579
 9281 Fit       0.000921
 9282 Fit       0.002102
 9283 Fit       0.003415
 9284 Fit       0.004719
 9285 Fit       0.005798
 9286 Fit       0.006421
 9287 Fit       0.006428
 9288 Fit       0.005817
 9289 Fit       0.004745
 9290 Fit       0.003445
 9291 Fit       0.002132
 9292 Fit       0.000949
 9293 Fit       0.002131
 9294 Fit       0.003116
 9295 Fit       0.004052
 9296 Fit       0.004800
 9297 Fit       0.005220
 9298 Fit       0.005225
 9299 Fit       0.004813
 9300 Fit       0.004071
 9301 Fit       0.003138
 9302 Fit       0.002153
 9303 Fit       0.003614
 9304 Fit       0.004149
 9305 Fit       0.004444
 9306 Fit       0.004447
 9307 Fit       0.004157
 9308 Fit       0.003627
 9309 Fit      -0.022700
 9310 Fit      -0.022698
 9311 Fit      -0.018911
 9312 Fit      -0.019628
 9313 Fit      -0.020115
 9314 Fit      -0.020359
 9315 Fit      -0.020356
 9316 Fit      -0.020107
 9317 Fit      -0.019617
 9318 Fit      -0.018899
 9319 Fit      -0.015974
 9320 Fit      -0.016484
 9321 Fit      -0.016806
 9322 Fit      -0.016972
 9323 Fit      -0.017032
 9324 Fit      -0.017028
 9325 Fit      -0.016960
 9326 Fit      -0.016790
 9327 Fit      -0.016465
 9328 Fit      -0.015955
 9329 Fit      -0.013273
 9330 Fit      -0.013506
 9331 Fit      -0.013504
 9332 Fit      -0.013315
 9333 Fit      -0.013052
 9334 Fit      -0.012863
 9335 Fit      -0.012857
 9336 Fit      -0.013035
 9337 Fit      -0.013291
 9338 Fit      -0.013478
 9339 Fit      -0.013480
 9340 Fit      -0.013250
 9341 Fit      -0.011024
 9342 Fit      -0.011050
 9343 Fit      -0.010766
 9344 Fit      -0.010174
 9345 Fit      -0.009373
 9346 Fit      -0.008578
 9347 Fit      -0.008071
 9348 Fit      -0.008062
 9349 Fit      -0.008554
 9350 Fit      -0.009340
 9351 Fit      -0.010138
 9352 Fit      -0.010731
 9353 Fit      -0.011019
 9354 Fit      -0.010999
 9355 Fit      -0.009165
 9356 Fit      -0.008764
 9357 Fit      -0.007955
 9358 Fit      -0.006743
 9359 Fit      -0.005267
 9360 Fit      -0.003859
 9361 Fit      -0.002972
 9362 Fit      -0.002960
 9363 Fit      -0.003826
 9364 Fit      -0.005224
 9365 Fit      -0.006696
 9366 Fit      -0.007913
 9367 Fit      -0.008727
 9368 Fit      -0.009135
 9369 Fit      -0.007355
 9370 Fit      -0.006574
 9371 Fit      -0.005292
 9372 Fit      -0.003505
 9373 Fit      -0.001382
 9374 Fit       0.000643
 9375 Fit       0.001923
 9376 Fit       0.001939
 9377 Fit       0.000684
 9378 Fit      -0.001328
 9379 Fit      -0.003450
 9380 Fit      -0.005242
 9381 Fit      -0.006531
 9382 Fit      -0.007320
 9383 Fit      -0.006299
 9384 Fit      -0.005690
 9385 Fit      -0.004618
 9386 Fit      -0.002986
 9387 Fit      -0.000779
 9388 Fit       0.001820
 9389 Fit       0.004300
 9390 Fit       0.005876
 9391 Fit       0.005894
 9392 Fit       0.004347
 9393 Fit       0.001881
 9394 Fit      -0.000717
 9395 Fit      -0.002931
 9396 Fit      -0.004572
 9397 Fit      -0.005653
 9398 Fit      -0.006270
 9399 Fit      -0.005010
 9400 Fit      -0.004239
 9401 Fit      -0.002996
 9402 Fit      -0.001190
 9403 Fit       0.001190
 9404 Fit       0.003947
 9405 Fit       0.006557
 9406 Fit       0.008208
 9407 Fit       0.008227
 9408 Fit       0.006606
 9409 Fit       0.004010
 9410 Fit       0.001253
 9411 Fit      -0.001133
 9412 Fit      -0.002949
 9413 Fit      -0.004201
 9414 Fit      -0.004980
 9415 Fit      -0.003030
 9416 Fit      -0.001743
 9417 Fit       0.000051
 9418 Fit       0.002338
 9419 Fit       0.004917
 9420 Fit       0.007303
 9421 Fit       0.008789
 9422 Fit       0.008806
 9423 Fit       0.007346
 9424 Fit       0.004974
 9425 Fit       0.002397
 9426 Fit       0.000104
 9427 Fit      -0.001698
 9428 Fit      -0.002994
 9429 Fit      -0.002058
 9430 Fit      -0.000830
 9431 Fit       0.000808
 9432 Fit       0.002813
 9433 Fit       0.004990
 9434 Fit       0.006940
 9435 Fit       0.008127
 9436 Fit       0.008140
 9437 Fit       0.006975
 9438 Fit       0.005038
 9439 Fit       0.002863
 9440 Fit       0.000855
 9441 Fit      -0.000789
 9442 Fit      -0.002025
 9443 Fit      -0.001290
 9444 Fit      -0.000186
 9445 Fit       0.001221
 9446 Fit       0.002868
 9447 Fit       0.004581
 9448 Fit       0.006059
 9449 Fit       0.006936
 9450 Fit       0.006946
 9451 Fit       0.006086
 9452 Fit       0.004618
 9453 Fit       0.002908
 9454 Fit       0.001260
 9455 Fit      -0.000151
 9456 Fit      -0.001261
 9457 Fit       0.000272
 9458 Fit       0.001433
 9459 Fit       0.002733
 9460 Fit       0.004030
 9461 Fit       0.005108
 9462 Fit       0.005731
 9463 Fit       0.005738
 9464 Fit       0.005127
 9465 Fit       0.004057
 9466 Fit       0.002764
 9467 Fit       0.001464
 9468 Fit       0.000300
 9469 Fit       0.001549
 9470 Fit       0.002557
 9471 Fit       0.003524
 9472 Fit       0.004302
 9473 Fit       0.004742
 9474 Fit       0.004747
 9475 Fit       0.004316
 9476 Fit       0.003544
 9477 Fit       0.002581
 9478 Fit       0.001573
 9479 Fit       0.002408
 9480 Fit       0.003131
 9481 Fit       0.003697
 9482 Fit       0.004012
 9483 Fit       0.004015
 9484 Fit       0.003707
 9485 Fit       0.003146
 9486 Fit       0.002426
 9487 Fit       0.003501
 9488 Fit       0.003504
 9489 Fit      -0.016848
 9490 Fit      -0.017011
 9491 Fit      -0.017009
 9492 Fit      -0.016843
 9493 Fit      -0.014126
 9494 Fit      -0.014357
 9495 Fit      -0.014480
 9496 Fit      -0.014529
 9497 Fit      -0.014526
 9498 Fit      -0.014472
 9499 Fit      -0.014345
 9500 Fit      -0.014111
 9501 Fit      -0.011804
 9502 Fit      -0.011828
 9503 Fit      -0.011736
 9504 Fit      -0.011598
 9505 Fit      -0.011498
 9506 Fit      -0.011494
 9507 Fit      -0.011586
 9508 Fit      -0.011719
 9509 Fit      -0.011809
 9510 Fit      -0.011784
 9511 Fit      -0.009817
 9512 Fit      -0.009642
 9513 Fit      -0.009286
 9514 Fit      -0.008821
 9515 Fit      -0.008377
 9516 Fit      -0.008101
 9517 Fit      -0.008095
 9518 Fit      -0.008361
 9519 Fit      -0.008799
 9520 Fit      -0.009260
 9521 Fit      -0.009617
 9522 Fit      -0.009793
 9523 Fit      -0.007953
 9524 Fit      -0.007426
 9525 Fit      -0.006681
 9526 Fit      -0.005827
 9527 Fit      -0.005055
 9528 Fit      -0.004586
 9529 Fit      -0.004579
 9530 Fit      -0.005035
 9531 Fit      -0.005799
 9532 Fit      -0.006649
 9533 Fit      -0.007395
 9534 Fit      -0.007925
 9535 Fit      -0.006705
 9536 Fit      -0.006154
 9537 Fit      -0.005311
 9538 Fit      -0.004216
 9539 Fit      -0.003007
 9540 Fit      -0.001929
 9541 Fit      -0.001279
 9542 Fit      -0.001271
 9543 Fit      -0.001905
 9544 Fit      -0.002974
 9545 Fit      -0.004180
 9546 Fit      -0.005276
 9547 Fit      -0.006122
 9548 Fit      -0.006678
 9549 Fit      -0.005288
 9550 Fit      -0.004525
 9551 Fit      -0.003444
 9552 Fit      -0.002093
 9553 Fit      -0.000626
 9554 Fit       0.000673
 9555 Fit       0.001454
 9556 Fit       0.001463
 9557 Fit       0.000699
 9558 Fit      -0.000589
 9559 Fit      -0.002053
 9560 Fit      -0.003406
 9561 Fit      -0.004491
 9562 Fit      -0.005259
 9563 Fit      -0.004035
 9564 Fit      -0.003140
 9565 Fit      -0.001929
 9566 Fit      -0.000455
 9567 Fit       0.001120
 9568 Fit       0.002499
 9569 Fit       0.003324
 9570 Fit       0.003334
 9571 Fit       0.002526
 9572 Fit       0.001157
 9573 Fit      -0.000414
 9574 Fit      -0.001890
 9575 Fit      -0.003105
 9576 Fit      -0.004005
 9577 Fit      -0.002974
 9578 Fit      -0.002031
 9579 Fit      -0.000802
 9580 Fit       0.000653
 9581 Fit       0.002175
 9582 Fit       0.003488
 9583 Fit       0.004265
 9584 Fit       0.004274
 9585 Fit       0.003513
 9586 Fit       0.002210
 9587 Fit       0.000692
 9588 Fit      -0.000765
 9589 Fit      -0.001997
 9590 Fit      -0.002945
 9591 Fit      -0.001186
 9592 Fit      -0.000031
 9593 Fit       0.001296
 9594 Fit       0.002646
 9595 Fit       0.003787
 9596 Fit       0.004453
 9597 Fit       0.004461
 9598 Fit       0.003808
 9599 Fit       0.002677
 9600 Fit       0.001330
 9601 Fit       0.000003
 9602 Fit      -0.001155
 9603 Fit      -0.000561
 9604 Fit       0.000464
 9605 Fit       0.001603
 9606 Fit       0.002728
 9607 Fit       0.003656
 9608 Fit       0.004189
 9609 Fit       0.004195
 9610 Fit       0.003674
 9611 Fit       0.002753
 9612 Fit       0.001632
 9613 Fit       0.000493
 9614 Fit      -0.000534
 9615 Fit       0.000774
 9616 Fit       0.001713
 9617 Fit       0.002613
 9618 Fit       0.003337
 9619 Fit       0.003746
 9620 Fit       0.003751
 9621 Fit       0.003351
 9622 Fit       0.002633
 9623 Fit       0.001736
 9624 Fit       0.000798
 9625 Fit       0.001731
 9626 Fit       0.002436
 9627 Fit       0.002989
 9628 Fit       0.003298
 9629 Fit       0.003301
 9630 Fit       0.003000
 9631 Fit       0.002451
 9632 Fit       0.001749
 9633 Fit       0.002690
 9634 Fit       0.002921
 9635 Fit       0.002924
 9636 Fit       0.002698
 9637 Fit      -0.012601
 9638 Fit      -0.012599
 9639 Fit      -0.010466
 9640 Fit      -0.010403
 9641 Fit      -0.010355
 9642 Fit      -0.010352
 9643 Fit      -0.010395
 9644 Fit      -0.010453
 9645 Fit      -0.008536
 9646 Fit      -0.008275
 9647 Fit      -0.008030
 9648 Fit      -0.007879
 9649 Fit      -0.007875
 9650 Fit      -0.008019
 9651 Fit      -0.008260
 9652 Fit      -0.008518
 9653 Fit      -0.006982
 9654 Fit      -0.006533
 9655 Fit      -0.006038
 9656 Fit      -0.005605
 9657 Fit      -0.005349
 9658 Fit      -0.005344
 9659 Fit      -0.005592
 9660 Fit      -0.006019
 9661 Fit      -0.006511
 9662 Fit      -0.006959
 9663 Fit      -0.005294
 9664 Fit      -0.004625
 9665 Fit      -0.003921
 9666 Fit      -0.003320
 9667 Fit      -0.002968
 9668 Fit      -0.002963
 9669 Fit      -0.003305
 9670 Fit      -0.003899
 9671 Fit      -0.004600
 9672 Fit      -0.005269
 9673 Fit      -0.004480
 9674 Fit      -0.003775
 9675 Fit      -0.002940
 9676 Fit      -0.002083
 9677 Fit      -0.001360
 9678 Fit      -0.000939
 9679 Fit      -0.000933
 9680 Fit      -0.001344
 9681 Fit      -0.002060
 9682 Fit      -0.002913
 9683 Fit      -0.003748
 9684 Fit      -0.004454
 9685 Fit      -0.003299
 9686 Fit      -0.002496
 9687 Fit      -0.001572
 9688 Fit      -0.000639
 9689 Fit       0.000140
 9690 Fit       0.000590
 9691 Fit       0.000595
 9692 Fit       0.000156
 9693 Fit      -0.000615
 9694 Fit      -0.001545
 9695 Fit      -0.002469
 9696 Fit      -0.003273
 9697 Fit      -0.001489
 9698 Fit      -0.000554
 9699 Fit       0.000373
 9700 Fit       0.001136
 9701 Fit       0.001574
 9702 Fit       0.001579
 9703 Fit       0.001152
 9704 Fit       0.000395
 9705 Fit      -0.000528
 9706 Fit      -0.001462
 9707 Fit      -0.000740
 9708 Fit       0.000140
 9709 Fit       0.000994
 9710 Fit       0.001688
 9711 Fit       0.002082
 9712 Fit       0.002086
 9713 Fit       0.001701
 9714 Fit       0.001015
 9715 Fit       0.000163
 9716 Fit      -0.000716
 9717 Fit       0.000577
 9718 Fit       0.001321
 9719 Fit       0.001915
 9720 Fit       0.002249
 9721 Fit       0.002253
 9722 Fit       0.001927
 9723 Fit       0.001338
 9724 Fit       0.000597
 9725 Fit       0.001460
 9726 Fit       0.001949
 9727 Fit       0.002220
 9728 Fit       0.002223
 9729 Fit       0.001958
 9730 Fit       0.001475
 9731 Fit       0.002108
 9732 Fit       0.002110
 9733 Fit      -0.007610
 9734 Fit      -0.007529
 9735 Fit      -0.007527
 9736 Fit      -0.007603
 9737 Fit      -0.006033
 9738 Fit      -0.005788
 9739 Fit      -0.005645
 9740 Fit      -0.005642
 9741 Fit      -0.005780
 9742 Fit      -0.006020
 9743 Fit      -0.004815
 9744 Fit      -0.004400
 9745 Fit      -0.004056
 9746 Fit      -0.003858
 9747 Fit      -0.003855
 9748 Fit      -0.004046
 9749 Fit      -0.004386
 9750 Fit      -0.004798
 9751 Fit      -0.003459
 9752 Fit      -0.002946
 9753 Fit      -0.002528
 9754 Fit      -0.002289
 9755 Fit      -0.002286
 9756 Fit      -0.002517
 9757 Fit      -0.002931
 9758 Fit      -0.003441
 9759 Fit      -0.002311
 9760 Fit      -0.001743
 9761 Fit      -0.001285
 9762 Fit      -0.001026
 9763 Fit      -0.001022
 9764 Fit      -0.001275
 9765 Fit      -0.001728
 9766 Fit      -0.002292
 9767 Fit      -0.001398
 9768 Fit      -0.000821
 9769 Fit      -0.000360
 9770 Fit      -0.000101
 9771 Fit      -0.000097
 9772 Fit      -0.000349
 9773 Fit      -0.000806
 9774 Fit      -0.001380
 9775 Fit      -0.000164
 9776 Fit       0.000270
 9777 Fit       0.000511
 9778 Fit       0.000515
 9779 Fit       0.000279
 9780 Fit      -0.000150
 9781 Fit       0.000660
 9782 Fit       0.000874
 9783 Fit       0.000877
 9784 Fit       0.000668
 -----------------------------------------------------------------
 Leave Link  602 at Thu Apr 21 16:29:40 2022, MaxMem=   104857600 cpu:               0.6 elap:               0.7
 (Enter /opt/ohpc/pub/libs/gaussian/g16-A.03/haswell/g16/l9999.exe)

 Test job not archived.
 1\1\GINC-CASCADEB033\SP\RB3LYP\6-311++G(d,p)\C5H6N2\MNG228\21-Apr-2022
 \0\\#P B3LYP/6-311++G(d,p) Geom=Allcheck SCF=Tight EmpiricalDispersion
 =GD3BJ Pop=CHELPG SP IOp(6/33=2)\\1VI geo opt\\0,1\H,0,1.0113100411,-0
 .3046377254,0.0246082886\C,0,2.0828883885,-0.3534681,0.1575812164\H,0,
 2.4665555451,-0.2259159838,1.1611944285\C,0,2.8632377856,-0.5637219986
 ,-0.8996385103\H,0,2.4446545421,-0.6869711116,-1.8910610628\N,0,4.2659
 076519,-0.652637433,-0.8907493689\C,0,5.1329548292,-0.5470577625,0.174
 469426\H,0,4.7907571498,-0.3752533821,1.1817280312\N,0,6.3817140958,-0
 .6805079466,-0.1966463325\C,0,6.3473395014,-0.8825477196,-1.562652091\
 H,0,7.2506063636,-1.0244729811,-2.133908186\C,0,5.057260272,-0.8695649
 279,-2.0120522519\H,0,4.6245138338,-0.9895429275,-2.9907735872\\Versio
 n=ES64L-G16RevA.03\State=1-A\HF=-303.7132862\RMSD=6.332e-09\Dipole=-1.
 2392815,0.0044716,-0.4914578\Quadrupole=-1.3183078,-2.5775084,3.895816
 2,-0.4801708,-2.5728351,1.1664209\PG=C01 [X(C5H6N2)]\\@


 ASKING DUMB QUESTIONS IS EASIER THAN CORECTING DUMB MISTAKES.
 Job cpu time:       0 days  0 hours  1 minutes  0.5 seconds.
 Elapsed time:       0 days  0 hours  1 minutes  1.2 seconds.
 File lengths (MBytes):  RWF=    272 Int=      0 D2E=      0 Chk=     32 Scr=     32
 Normal termination of Gaussian 16 at Thu Apr 21 16:29:40 2022.
