 Entering Gaussian System, Link 0=g16
 Initial command:
 /opt/ohpc/pub/libs/gaussian/g16-A.03/haswell/g16/l1.exe "g16_scratch/Gau-132226.inp" -scrdir="g16_scratch/"
 Entering Link 1 = /opt/ohpc/pub/libs/gaussian/g16-A.03/haswell/g16/l1.exe PID=    132227.
  
 Copyright (c) 1988,1990,1992,1993,1995,1998,2003,2009,2016,
            Gaussian, Inc.  All Rights Reserved.
  
 This is part of the Gaussian(R) 16 program.  It is based on
 the Gaussian(R) 09 system (copyright 2009, Gaussian, Inc.),
 the Gaussian(R) 03 system (copyright 2003, Gaussian, Inc.),
 the Gaussian(R) 98 system (copyright 1998, Gaussian, Inc.),
 the Gaussian(R) 94 system (copyright 1995, Gaussian, Inc.),
 the Gaussian 92(TM) system (copyright 1992, Gaussian, Inc.),
 the Gaussian 90(TM) system (copyright 1990, Gaussian, Inc.),
 the Gaussian 88(TM) system (copyright 1988, Gaussian, Inc.),
 the Gaussian 86(TM) system (copyright 1986, Carnegie Mellon
 University), and the Gaussian 82(TM) system (copyright 1983,
 Carnegie Mellon University). Gaussian is a federally registered
 trademark of Gaussian, Inc.
  
 This software contains proprietary and confidential information,
 including trade secrets, belonging to Gaussian, Inc.
  
 This software is provided under written license and may be
 used, copied, transmitted, or stored only in accord with that
 written license.
  
 The following legend is applicable only to US Government
 contracts under FAR:
  
                    RESTRICTED RIGHTS LEGEND
  
 Use, reproduction and disclosure by the US Government is
 subject to restrictions as set forth in subparagraphs (a)
 and (c) of the Commercial Computer Software - Restricted
 Rights clause in FAR 52.227-19.
  
 Gaussian, Inc.
 340 Quinnipiac St., Bldg. 40, Wallingford CT 06492
  
  
 ---------------------------------------------------------------
 Warning -- This program may not be used in any manner that
 competes with the business of Gaussian, Inc. or will provide
 assistance to any competitor of Gaussian, Inc.  The licensee
 of this program is prohibited from giving any competitor of
 Gaussian, Inc. access to this program.  By using this program,
 the user acknowledges that Gaussian, Inc. is engaged in the
 business of creating and licensing software in the field of
 computational chemistry and represents and warrants to the
 licensee that it is not a competitor of Gaussian, Inc. and that
 it will not use this program in any manner prohibited above.
 ---------------------------------------------------------------
  

 Cite this work as:
 Gaussian 16, Revision A.03,
 M. J. Frisch, G. W. Trucks, H. B. Schlegel, G. E. Scuseria, 
 M. A. Robb, J. R. Cheeseman, G. Scalmani, V. Barone, 
 G. A. Petersson, H. Nakatsuji, X. Li, M. Caricato, A. V. Marenich, 
 J. Bloino, B. G. Janesko, R. Gomperts, B. Mennucci, H. P. Hratchian, 
 J. V. Ortiz, A. F. Izmaylov, J. L. Sonnenberg, D. Williams-Young, 
 F. Ding, F. Lipparini, F. Egidi, J. Goings, B. Peng, A. Petrone, 
 T. Henderson, D. Ranasinghe, V. G. Zakrzewski, J. Gao, N. Rega, 
 G. Zheng, W. Liang, M. Hada, M. Ehara, K. Toyota, R. Fukuda, 
 J. Hasegawa, M. Ishida, T. Nakajima, Y. Honda, O. Kitao, H. Nakai, 
 T. Vreven, K. Throssell, J. A. Montgomery, Jr., J. E. Peralta, 
 F. Ogliaro, M. J. Bearpark, J. J. Heyd, E. N. Brothers, K. N. Kudin, 
 V. N. Staroverov, T. A. Keith, R. Kobayashi, J. Normand, 
 K. Raghavachari, A. P. Rendell, J. C. Burant, S. S. Iyengar, 
 J. Tomasi, M. Cossi, J. M. Millam, M. Klene, C. Adamo, R. Cammi, 
 J. W. Ochterski, R. L. Martin, K. Morokuma, O. Farkas, 
 J. B. Foresman, and D. J. Fox, Gaussian, Inc., Wallingford CT, 2016.
 
 ******************************************
 Gaussian 16:  ES64L-G16RevA.03 25-Dec-2016
                21-Apr-2022 
 ******************************************
 %Mem=192GB
 %NProcShared=48
 Will use up to   48 processors via shared memory.
 %Chk=4AS-1.chk
 ---------------------------------------------------------------------
 #n B3LYP/6-311++G(d,p) Opt freq EmpiricalDispersion=GD3BJ IOp(6/33=2)
 ---------------------------------------------------------------------
 1/18=20,19=15,26=3,38=1/1,3;
 2/9=110,12=2,17=6,18=5,40=1/2;
 3/5=4,6=6,7=1111,11=2,25=1,30=1,71=1,74=-5,124=41/1,2,3;
 4//1;
 5/5=2,38=5/2;
 6/7=2,8=2,9=2,10=2,28=1,33=2/1;
 7//1,2,3,16;
 1/18=20,19=15,26=3/3(2);
 2/9=110/2;
 99//99;
 2/9=110/2;
 3/5=4,6=6,7=1111,11=2,25=1,30=1,71=1,74=-5,124=41/1,2,3;
 4/5=5,16=3,69=1/1;
 5/5=2,38=5/2;
 7//1,2,3,16;
 1/18=20,19=15,26=3/3(-5);
 2/9=110/2;
 6/7=2,8=2,9=2,10=2,19=2,28=1,33=2/1;
 99/9=1/99;
 -----------
 4AS geo opt
 -----------
 Symbolic Z-matrix:
 Charge =  0 Multiplicity = 1
 H                     0.9714   -0.2467    0.3164 
 C                     2.0523   -0.1639    0.3673 
 H                     2.4578    0.7715    0.7375 
 C                     2.8285   -1.1774   -0.0383 
 H                     2.3609   -2.0781   -0.4305 
 C                     4.2979   -1.159    -0.0311 
 C                     5.0387   -0.4212    0.8985 
 H                     4.5408    0.18      1.6543 
 C                     6.4384   -0.4352    0.8691 
 H                     6.9842    0.1816    1.5773 
 C                     7.1272   -1.2268   -0.0506 
 N                     8.5178   -1.126    -0.1656 
 H                     8.9514   -1.9283   -0.6108 
 H                     8.9824   -0.8655    0.6983 
 C                     6.3907   -1.9375   -0.9992 
 H                     6.8992   -2.506    -1.773 
 C                     4.9904   -1.9262   -0.9744 
 H                     4.4495   -2.5046   -1.7203 
 

 GradGradGradGradGradGradGradGradGradGradGradGradGradGradGradGradGradGrad
 Berny optimization.
 Initialization pass.
                           ----------------------------
                           !    Initial Parameters    !
                           ! (Angstroms and Degrees)  !
 --------------------------                            --------------------------
 ! Name  Definition              Value          Derivative Info.                !
 --------------------------------------------------------------------------------
 ! R1    R(1,2)                  1.0853         estimate D2E/DX2                !
 ! R2    R(2,3)                  1.0846         estimate D2E/DX2                !
 ! R3    R(2,4)                  1.3395         estimate D2E/DX2                !
 ! R4    R(4,5)                  1.088          estimate D2E/DX2                !
 ! R5    R(4,6)                  1.4695         estimate D2E/DX2                !
 ! R6    R(6,7)                  1.399          estimate D2E/DX2                !
 ! R7    R(6,17)                 1.3993         estimate D2E/DX2                !
 ! R8    R(7,8)                  1.0865         estimate D2E/DX2                !
 ! R9    R(7,9)                  1.4001         estimate D2E/DX2                !
 ! R10   R(9,10)                 1.0862         estimate D2E/DX2                !
 ! R11   R(9,11)                 1.3953         estimate D2E/DX2                !
 ! R12   R(11,12)                1.399          estimate D2E/DX2                !
 ! R13   R(11,15)                1.3955         estimate D2E/DX2                !
 ! R14   R(12,13)                1.0148         estimate D2E/DX2                !
 ! R15   R(12,14)                1.0149         estimate D2E/DX2                !
 ! R16   R(15,16)                1.0865         estimate D2E/DX2                !
 ! R17   R(15,17)                1.4006         estimate D2E/DX2                !
 ! R18   R(17,18)                1.0879         estimate D2E/DX2                !
 ! A1    A(1,2,3)              117.0108         estimate D2E/DX2                !
 ! A2    A(1,2,4)              120.3462         estimate D2E/DX2                !
 ! A3    A(3,2,4)              122.6318         estimate D2E/DX2                !
 ! A4    A(2,4,5)              119.1104         estimate D2E/DX2                !
 ! A5    A(2,4,6)              124.6438         estimate D2E/DX2                !
 ! A6    A(5,4,6)              116.2236         estimate D2E/DX2                !
 ! A7    A(4,6,7)              122.6374         estimate D2E/DX2                !
 ! A8    A(4,6,17)             118.992          estimate D2E/DX2                !
 ! A9    A(7,6,17)             118.3612         estimate D2E/DX2                !
 ! A10   A(6,7,8)              120.754          estimate D2E/DX2                !
 ! A11   A(6,7,9)              120.6731         estimate D2E/DX2                !
 ! A12   A(8,7,9)              118.5716         estimate D2E/DX2                !
 ! A13   A(7,9,10)             118.8795         estimate D2E/DX2                !
 ! A14   A(7,9,11)             120.8659         estimate D2E/DX2                !
 ! A15   A(10,9,11)            120.2546         estimate D2E/DX2                !
 ! A16   A(9,11,12)            120.2648         estimate D2E/DX2                !
 ! A17   A(9,11,15)            118.4537         estimate D2E/DX2                !
 ! A18   A(12,11,15)           120.3598         estimate D2E/DX2                !
 ! A19   A(11,12,13)           113.8159         estimate D2E/DX2                !
 ! A20   A(11,12,14)           113.8006         estimate D2E/DX2                !
 ! A21   A(13,12,14)           112.38           estimate D2E/DX2                !
 ! A22   A(11,15,16)           120.2376         estimate D2E/DX2                !
 ! A23   A(11,15,17)           120.7657         estimate D2E/DX2                !
 ! A24   A(16,15,17)           118.9961         estimate D2E/DX2                !
 ! A25   A(6,17,15)            120.7416         estimate D2E/DX2                !
 ! A26   A(6,17,18)            120.5081         estimate D2E/DX2                !
 ! A27   A(15,17,18)           118.7298         estimate D2E/DX2                !
 ! D1    D(1,2,4,5)              0.7676         estimate D2E/DX2                !
 ! D2    D(1,2,4,6)            178.9838         estimate D2E/DX2                !
 ! D3    D(3,2,4,5)           -177.982          estimate D2E/DX2                !
 ! D4    D(3,2,4,6)              0.2342         estimate D2E/DX2                !
 ! D5    D(2,4,6,7)             30.0007         estimate D2E/DX2                !
 ! D6    D(2,4,6,17)          -151.1415         estimate D2E/DX2                !
 ! D7    D(5,4,6,7)           -151.7366         estimate D2E/DX2                !
 ! D8    D(5,4,6,17)            27.1213         estimate D2E/DX2                !
 ! D9    D(4,6,7,8)             -0.5245         estimate D2E/DX2                !
 ! D10   D(4,6,7,9)            179.8878         estimate D2E/DX2                !
 ! D11   D(17,6,7,8)          -179.3892         estimate D2E/DX2                !
 ! D12   D(17,6,7,9)             1.0231         estimate D2E/DX2                !
 ! D13   D(4,6,17,15)         -179.8937         estimate D2E/DX2                !
 ! D14   D(4,6,17,18)            1.7738         estimate D2E/DX2                !
 ! D15   D(7,6,17,15)           -0.9868         estimate D2E/DX2                !
 ! D16   D(7,6,17,18)         -179.3193         estimate D2E/DX2                !
 ! D17   D(6,7,9,10)           177.4049         estimate D2E/DX2                !
 ! D18   D(6,7,9,11)            -2.6674         estimate D2E/DX2                !
 ! D19   D(8,7,9,10)            -2.1916         estimate D2E/DX2                !
 ! D20   D(8,7,9,11)           177.736          estimate D2E/DX2                !
 ! D21   D(7,9,11,12)          173.2096         estimate D2E/DX2                !
 ! D22   D(7,9,11,15)            4.155          estimate D2E/DX2                !
 ! D23   D(10,9,11,12)          -6.8638         estimate D2E/DX2                !
 ! D24   D(10,9,11,15)        -175.9184         estimate D2E/DX2                !
 ! D25   D(9,11,12,13)         160.55           estimate D2E/DX2                !
 ! D26   D(9,11,12,14)          30.0424         estimate D2E/DX2                !
 ! D27   D(15,11,12,13)        -30.6052         estimate D2E/DX2                !
 ! D28   D(15,11,12,14)       -161.1128         estimate D2E/DX2                !
 ! D29   D(9,11,15,16)         175.615          estimate D2E/DX2                !
 ! D30   D(9,11,15,17)          -4.1134         estimate D2E/DX2                !
 ! D31   D(12,11,15,16)          6.5711         estimate D2E/DX2                !
 ! D32   D(12,11,15,17)       -173.1573         estimate D2E/DX2                !
 ! D33   D(11,15,17,6)           2.59           estimate D2E/DX2                !
 ! D34   D(11,15,17,18)       -179.0483         estimate D2E/DX2                !
 ! D35   D(16,15,17,6)        -177.1417         estimate D2E/DX2                !
 ! D36   D(16,15,17,18)          1.22           estimate D2E/DX2                !
 --------------------------------------------------------------------------------
 Trust Radius=3.00D-01 FncErr=1.00D-07 GrdErr=1.00D-06 EigMax=2.50D+02 EigMin=1.00D-04
 Number of steps in this run=     91 maximum allowed number of steps=    108.
 GradGradGradGradGradGradGradGradGradGradGradGradGradGradGradGradGradGrad

                          Input orientation:                          
 ---------------------------------------------------------------------
 Center     Atomic      Atomic             Coordinates (Angstroms)
 Number     Number       Type             X           Y           Z
 ---------------------------------------------------------------------
      1          1           0        0.971400   -0.246700    0.316400
      2          6           0        2.052300   -0.163900    0.367300
      3          1           0        2.457800    0.771500    0.737500
      4          6           0        2.828500   -1.177400   -0.038300
      5          1           0        2.360900   -2.078100   -0.430500
      6          6           0        4.297900   -1.159000   -0.031100
      7          6           0        5.038700   -0.421200    0.898500
      8          1           0        4.540800    0.180000    1.654300
      9          6           0        6.438400   -0.435200    0.869100
     10          1           0        6.984200    0.181600    1.577300
     11          6           0        7.127200   -1.226800   -0.050600
     12          7           0        8.517800   -1.126000   -0.165600
     13          1           0        8.951400   -1.928300   -0.610800
     14          1           0        8.982400   -0.865500    0.698300
     15          6           0        6.390700   -1.937500   -0.999200
     16          1           0        6.899200   -2.506000   -1.773000
     17          6           0        4.990400   -1.926200   -0.974400
     18          1           0        4.449500   -2.504600   -1.720300
 ---------------------------------------------------------------------
                    Distance matrix (angstroms):
                    1          2          3          4          5
     1  H    0.000000
     2  C    1.085261   0.000000
     3  H    1.850254   1.084643   0.000000
     4  C    2.107329   1.339470   2.130140   0.000000
     5  H    2.417146   2.096636   3.081207   1.087994   0.000000
     6  C    3.466792   2.488306   2.775526   1.469533   2.180879
     7  C    4.112447   3.044168   2.847718   2.516827   3.417919
     8  H    3.835709   2.822635   2.351443   2.763947   3.767940
     9  C    5.498100   4.423040   4.161565   3.795473   4.584112
    10  H    6.158496   5.089903   4.641287   4.661211   5.523804
    11  C    6.244130   5.201827   5.139806   4.299001   4.856609
    12  N    7.612729   6.558377   6.414023   5.690956   6.235710
    13  H    8.207794   7.188002   7.160564   6.195281   6.594667
    14  H    8.043934   6.973384   6.726939   6.205671   6.825603
    15  C    5.827385   4.882079   5.081585   3.767008   4.072159
    16  H    6.678985   5.792992   6.063881   4.620061   4.752007
    17  C    4.543044   3.679442   4.077039   2.472002   2.689456
    18  H    4.619896   3.947596   4.554172   2.686675   2.491533
                    6          7          8          9         10
     6  C    0.000000
     7  C    1.399032   0.000000
     8  H    2.166217   1.086545   0.000000
     9  C    2.432280   1.400079   2.143804   0.000000
    10  H    3.405931   2.146883   2.444613   1.086226   0.000000
    11  C    2.830179   2.431381   3.402240   1.395322   2.157336
    12  N    4.222172   3.705832   4.564450   2.423162   2.664479
    13  H    4.752151   4.456294   5.387857   3.276373   3.620682
    14  H    4.750022   3.973695   4.662061   2.585782   2.421128
    15  C    2.433740   2.779988   3.866135   2.397859   3.388389
    16  H    3.408135   3.865846   4.952073   3.388398   4.295920
    17  C    1.399274   2.403146   3.398276   2.778179   3.863836
    18  H    2.164952   3.397915   4.313159   3.865635   4.951216
                   11         12         13         14         15
    11  C    0.000000
    12  N    1.398983   0.000000
    13  H    2.033134   1.014839   0.000000
    14  H    2.033016   1.014907   1.686490   0.000000
    15  C    1.395482   2.424454   2.590005   3.278353   0.000000
    16  H    2.157545   2.666083   2.428162   3.624677   1.086522
    17  C    2.430737   3.706350   3.977654   4.456352   1.400565
    18  H    3.404519   4.568227   4.672282   5.392908   2.147055
                   16         17         18
    16  H    0.000000
    17  C    2.148825   0.000000
    18  H    2.450267   1.087882   0.000000
 Stoichiometry    C8H9N
 Framework group  C1[X(C8H9N)]
 Deg. of freedom    48
 Full point group                 C1      NOp   1
 Largest Abelian subgroup         C1      NOp   1
 Largest concise Abelian subgroup C1      NOp   1
                         Standard orientation:                         
 ---------------------------------------------------------------------
 Center     Atomic      Atomic             Coordinates (Angstroms)
 Number     Number       Type             X           Y           Z
 ---------------------------------------------------------------------
      1          1           0       -4.435578   -0.235288    0.196544
      2          6           0       -3.376724   -0.462362    0.267659
      3          1           0       -3.105380   -1.408957    0.722391
      4          6           0       -2.465361    0.415380   -0.171848
      5          1           0       -2.800831    1.362688   -0.588740
      6          6           0       -1.011197    0.215056   -0.102547
      7          6           0       -0.420630   -1.052028   -0.157506
      8          1           0       -1.031342   -1.946272   -0.246599
      9          6           0        0.970482   -1.195187   -0.090179
     10          1           0        1.395731   -2.194709   -0.092554
     11          6           0        1.802707   -0.077266   -0.022509
     12          7           0        3.177145   -0.233079    0.186772
     13          1           0        3.727241    0.575370   -0.084708
     14          1           0        3.552682   -1.098979   -0.186358
     15          6           0        1.214520    1.185142    0.065410
     16          1           0        1.833152    2.069455    0.191168
     17          6           0       -0.176584    1.333554   -0.000819
     18          1           0       -0.598956    2.334513    0.055496
 ---------------------------------------------------------------------
 Rotational constants (GHZ):           4.9578687           0.9945081           0.8375104
 Standard basis: 6-311++G(d,p) (5D, 7F)
 There are   270 symmetry adapted cartesian basis functions of A   symmetry.
 There are   261 symmetry adapted basis functions of A   symmetry.
   261 basis functions,   405 primitive gaussians,   270 cartesian basis functions
    32 alpha electrons       32 beta electrons
       nuclear repulsion energy       397.3213049421 Hartrees.
 NAtoms=   18 NActive=   18 NUniq=   18 SFac= 1.00D+00 NAtFMM=   60 NAOKFM=F Big=F
 Integral buffers will be    131072 words long.
 Raffenetti 2 integral format.
 Two-electron integral symmetry is turned on.
 Nuclear repulsion after empirical dispersion term =      397.2897156681 Hartrees.
 One-electron integrals computed using PRISM.
 NBasis=   261 RedAO= T EigKep=  2.72D-06  NBF=   261
 NBsUse=   260 1.00D-06 EigRej=  9.16D-07 NBFU=   260
 ExpMin= 3.60D-02 ExpMax= 6.29D+03 ExpMxC= 9.49D+02 IAcc=3 IRadAn=         5 AccDes= 0.00D+00
 Harris functional with IExCor=  402 and IRadAn=       5 diagonalized for initial guess.
 HarFok:  IExCor=  402 AccDes= 0.00D+00 IRadAn=         5 IDoV= 1 UseB2=F ITyADJ=14
 ICtDFT=  3500011 ScaDFX=  1.000000  1.000000  1.000000  1.000000
 FoFCou: FMM=F IPFlag=           0 FMFlag=      100000 FMFlg1=           0
         NFxFlg=           0 DoJE=T BraDBF=F KetDBF=T FulRan=T
         wScrn=  0.000000 ICntrl=       500 IOpCl=  0 I1Cent=   200000004 NGrid=           0
         NMat0=    1 NMatS0=      1 NMatT0=    0 NMatD0=    1 NMtDS0=    0 NMtDT0=    0
 Petite list used in FoFCou.
 Requested convergence on RMS density matrix=1.00D-08 within 128 cycles.
 Requested convergence on MAX density matrix=1.00D-06.
 Requested convergence on             energy=1.00D-06.
 No special actions if energy rises.
 SCF Done:  E(RB3LYP) =  -365.136680762     A.U. after   14 cycles
            NFock= 14  Conv=0.82D-08     -V/T= 2.0047
 SCF density gives NOpUse=  1 NOpAll=  1.

 **********************************************************************

            Population analysis using the SCF density.

 **********************************************************************

 Orbital symmetries:
 BldTbl:  Degeneracy threshold= 1.00D-02
       Occupied  (A) (A) (A) (A) (A) (A) (A) (A) (A) (A) (A) (A)
                 (A) (A) (A) (A) (A) (A) (A) (A) (A) (A) (A) (A)
                 (A) (A) (A) (A) (A) (A) (A) (A)
       Virtual   (A) (A) (A) (A) (A) (A) (A) (A) (A) (A) (A) (A)
                 (A) (A) (A) (A) (A) (A) (A) (A) (A) (A) (A) (A)
                 (A) (A) (A) (A) (A) (A) (A) (A) (A) (A) (A) (A)
                 (A) (A) (A) (A) (A) (A) (A) (A) (A) (A) (A) (A)
                 (A) (A) (A) (A) (A) (A) (A) (A) (A) (A) (A) (A)
                 (A) (A) (A) (A) (A) (A) (A) (A) (A) (A) (A) (A)
                 (A) (A) (A) (A) (A) (A) (A) (A) (A) (A) (A) (A)
                 (A) (A) (A) (A) (A) (A) (A) (A) (A) (A) (A) (A)
                 (A) (A) (A) (A) (A) (A) (A) (A) (A) (A) (A) (A)
                 (A) (A) (A) (A) (A) (A) (A) (A) (A) (A) (A) (A)
                 (A) (A) (A) (A) (A) (A) (A) (A) (A) (A) (A) (A)
                 (A) (A) (A) (A) (A) (A) (A) (A) (A) (A) (A) (A)
                 (A) (A) (A) (A) (A) (A) (A) (A) (A) (A) (A) (A)
                 (A) (A) (A) (A) (A) (A) (A) (A) (A) (A) (A) (A)
                 (A) (A) (A) (A) (A) (A) (A) (A) (A) (A) (A) (A)
                 (A) (A) (A) (A) (A) (A) (A) (A) (A) (A) (A) (A)
                 (A) (A) (A) (A) (A) (A) (A) (A) (A) (A) (A) (A)
                 (A) (A) (A) (A) (A) (A) (A) (A) (A) (A) (A) (A)
                 (A) (A) (A) (A) (A) (A) (A) (A) (A) (A) (A) (A)
 The electronic state is 1-A.
 Alpha  occ. eigenvalues --  -14.32711 -10.21695 -10.17719 -10.17711 -10.17605
 Alpha  occ. eigenvalues --  -10.17551 -10.17316 -10.17262 -10.16191  -0.92850
 Alpha  occ. eigenvalues --   -0.85096  -0.78192  -0.74959  -0.71630  -0.62655
 Alpha  occ. eigenvalues --   -0.61335  -0.56240  -0.52593  -0.51787  -0.48063
 Alpha  occ. eigenvalues --   -0.45231  -0.44386  -0.42647  -0.41719  -0.39122
 Alpha  occ. eigenvalues --   -0.38668  -0.35217  -0.34643  -0.33131  -0.27319
 Alpha  occ. eigenvalues --   -0.25650  -0.20624
 Alpha virt. eigenvalues --   -0.03126  -0.01856  -0.01385   0.00187   0.00521
 Alpha virt. eigenvalues --    0.01780   0.02292   0.03204   0.04287   0.04615
 Alpha virt. eigenvalues --    0.05625   0.05806   0.06783   0.07501   0.08372
 Alpha virt. eigenvalues --    0.09130   0.09543   0.10174   0.10439   0.11267
 Alpha virt. eigenvalues --    0.11520   0.12188   0.12783   0.13342   0.13545
 Alpha virt. eigenvalues --    0.13780   0.14466   0.14779   0.15099   0.15377
 Alpha virt. eigenvalues --    0.15619   0.16001   0.16664   0.17628   0.17652
 Alpha virt. eigenvalues --    0.18307   0.18919   0.19825   0.20370   0.21195
 Alpha virt. eigenvalues --    0.21606   0.21926   0.22554   0.23368   0.23636
 Alpha virt. eigenvalues --    0.24843   0.25007   0.26293   0.26889   0.27598
 Alpha virt. eigenvalues --    0.27804   0.28321   0.29043   0.30197   0.30327
 Alpha virt. eigenvalues --    0.30737   0.31666   0.33090   0.34568   0.36197
 Alpha virt. eigenvalues --    0.37710   0.38735   0.39364   0.42212   0.48268
 Alpha virt. eigenvalues --    0.49635   0.52404   0.52645   0.54163   0.54838
 Alpha virt. eigenvalues --    0.55141   0.55574   0.55988   0.58357   0.59378
 Alpha virt. eigenvalues --    0.60591   0.61319   0.61568   0.62722   0.64496
 Alpha virt. eigenvalues --    0.64893   0.65617   0.66635   0.68254   0.70123
 Alpha virt. eigenvalues --    0.71091   0.72326   0.72965   0.74184   0.75619
 Alpha virt. eigenvalues --    0.76856   0.77884   0.79810   0.80471   0.81040
 Alpha virt. eigenvalues --    0.81915   0.85175   0.86398   0.86843   0.88847
 Alpha virt. eigenvalues --    0.89831   0.90394   0.90702   0.91451   0.92851
 Alpha virt. eigenvalues --    0.93628   0.95989   1.01826   1.03664   1.05534
 Alpha virt. eigenvalues --    1.06521   1.09043   1.10779   1.14930   1.15300
 Alpha virt. eigenvalues --    1.16874   1.21561   1.26432   1.33178   1.41519
 Alpha virt. eigenvalues --    1.43813   1.47024   1.48101   1.50329   1.50874
 Alpha virt. eigenvalues --    1.51731   1.53654   1.54411   1.55738   1.57050
 Alpha virt. eigenvalues --    1.60049   1.61521   1.62188   1.63201   1.63613
 Alpha virt. eigenvalues --    1.69029   1.69692   1.70925   1.73464   1.76818
 Alpha virt. eigenvalues --    1.77847   1.80309   1.81720   1.82983   1.87636
 Alpha virt. eigenvalues --    1.88652   1.90616   1.92014   1.93201   1.95413
 Alpha virt. eigenvalues --    1.96053   1.96788   2.00547   2.02958   2.06501
 Alpha virt. eigenvalues --    2.07536   2.09086   2.10839   2.15137   2.15957
 Alpha virt. eigenvalues --    2.17939   2.23449   2.27303   2.29168   2.32130
 Alpha virt. eigenvalues --    2.35988   2.42848   2.45357   2.46864   2.50515
 Alpha virt. eigenvalues --    2.56546   2.57859   2.58339   2.60561   2.62425
 Alpha virt. eigenvalues --    2.63394   2.67025   2.69927   2.71399   2.71605
 Alpha virt. eigenvalues --    2.72737   2.75017   2.76006   2.76703   2.77973
 Alpha virt. eigenvalues --    2.79496   2.80966   2.83218   2.85317   2.87978
 Alpha virt. eigenvalues --    2.88779   2.92029   2.93910   2.95752   2.99389
 Alpha virt. eigenvalues --    3.00459   3.08802   3.17016   3.19117   3.25954
 Alpha virt. eigenvalues --    3.27301   3.32882   3.37060   3.44897   3.49163
 Alpha virt. eigenvalues --    3.51669   3.61118   3.66913   3.76580   3.85297
 Alpha virt. eigenvalues --    3.99498   4.02203   4.04202   4.14992   4.16803
 Alpha virt. eigenvalues --    4.43388   4.75012   4.84373   4.97401  23.59108
 Alpha virt. eigenvalues --   23.81703  23.93761  23.97161  24.06084  24.08927
 Alpha virt. eigenvalues --   24.16901  24.24753  35.61891
          Condensed to atoms (all electrons):
               1          2          3          4          5          6
     1  H    0.553632   0.405080  -0.040300  -0.020117  -0.019308   0.002804
     2  C    0.405080   5.348453   0.358911   0.347829  -0.046736  -0.200671
     3  H   -0.040300   0.358911   0.567916   0.034725   0.013927  -0.076684
     4  C   -0.020117   0.347829   0.034725   9.418300   0.325047  -2.864331
     5  H   -0.019308  -0.046736   0.013927   0.325047   0.564746   0.002746
     6  C    0.002804  -0.200671  -0.076684  -2.864331   0.002746  10.504423
     7  C    0.006960   0.258200   0.025842  -0.850551   0.009416  -0.491727
     8  H   -0.000856   0.022932   0.002862   0.021867   0.002166  -0.159524
     9  C   -0.006477   0.018302  -0.000133  -0.053859  -0.023106  -0.440144
    10  H    0.000023  -0.001269   0.000465  -0.000345   0.000195   0.030409
    11  C   -0.000461  -0.011911  -0.000801   0.269815   0.001435  -0.267946
    12  N   -0.000041   0.000273  -0.000204  -0.005810  -0.000613  -0.034161
    13  H    0.000001   0.000045  -0.000006  -0.000518   0.000004   0.000362
    14  H   -0.000025  -0.000277  -0.000028   0.000770  -0.000034  -0.002747
    15  C    0.000221   0.044476  -0.004135  -0.392715   0.006569  -0.572430
    16  H    0.000047   0.003226   0.000010   0.001555   0.000333   0.030141
    17  C   -0.013143  -0.011796   0.000843  -0.272344  -0.001765  -0.284651
    18  H   -0.000590   0.000664   0.000179   0.012569   0.002890  -0.085124
               7          8          9         10         11         12
     1  H    0.006960  -0.000856  -0.006477   0.000023  -0.000461  -0.000041
     2  C    0.258200   0.022932   0.018302  -0.001269  -0.011911   0.000273
     3  H    0.025842   0.002862  -0.000133   0.000465  -0.000801  -0.000204
     4  C   -0.850551   0.021867  -0.053859  -0.000345   0.269815  -0.005810
     5  H    0.009416   0.002166  -0.023106   0.000195   0.001435  -0.000613
     6  C   -0.491727  -0.159524  -0.440144   0.030409  -0.267946  -0.034161
     7  C   12.023964   0.529468  -1.761923  -0.068986  -0.003662  -0.015009
     8  H    0.529468   0.572346  -0.092298  -0.026284   0.026316  -0.000502
     9  C   -1.761923  -0.092298   7.758800   0.471100   0.092632  -0.050103
    10  H   -0.068986  -0.026284   0.471100   0.584421  -0.096311  -0.020552
    11  C   -0.003662   0.026316   0.092632  -0.096311   6.349570   0.133589
    12  N   -0.015009  -0.000502  -0.050103  -0.020552   0.133589   6.653841
    13  H   -0.013093  -0.000389   0.063510   0.003309  -0.020430   0.375263
    14  H    0.004976   0.001174  -0.066820  -0.001930  -0.007142   0.374481
    15  C    1.378798   0.046652  -1.342532  -0.040107   0.279899  -0.132876
    16  H    0.014426   0.002256  -0.054747  -0.004592  -0.107777  -0.019174
    17  C   -4.172156  -0.072145   1.595720   0.022158  -0.530573   0.040997
    18  H    0.003020  -0.003164   0.039516   0.002177   0.015977   0.000001
              13         14         15         16         17         18
     1  H    0.000001  -0.000025   0.000221   0.000047  -0.013143  -0.000590
     2  C    0.000045  -0.000277   0.044476   0.003226  -0.011796   0.000664
     3  H   -0.000006  -0.000028  -0.004135   0.000010   0.000843   0.000179
     4  C   -0.000518   0.000770  -0.392715   0.001555  -0.272344   0.012569
     5  H    0.000004  -0.000034   0.006569   0.000333  -0.001765   0.002890
     6  C    0.000362  -0.002747  -0.572430   0.030141  -0.284651  -0.085124
     7  C   -0.013093   0.004976   1.378798   0.014426  -4.172156   0.003020
     8  H   -0.000389   0.001174   0.046652   0.002256  -0.072145  -0.003164
     9  C    0.063510  -0.066820  -1.342532  -0.054747   1.595720   0.039516
    10  H    0.003309  -0.001930  -0.040107  -0.004592   0.022158   0.002177
    11  C   -0.020430  -0.007142   0.279899  -0.107777  -0.530573   0.015977
    12  N    0.375263   0.374481  -0.132876  -0.019174   0.040997   0.000001
    13  H    0.456039  -0.038549  -0.079242  -0.001109   0.015063   0.001104
    14  H   -0.038549   0.458245   0.042940   0.002996  -0.008537  -0.000356
    15  C   -0.079242   0.042940   6.704907   0.465869  -0.009951  -0.052931
    16  H   -0.001109   0.002996   0.465869   0.587580  -0.035300  -0.025337
    17  C    0.015063  -0.008537  -0.009951  -0.035300   9.426907   0.377548
    18  H    0.001104  -0.000356  -0.052931  -0.025337   0.377548   0.559779
 Mulliken charges:
               1
     1  H    0.132549
     2  C   -0.535730
     3  H    0.116611
     4  C    0.028112
     5  H    0.162090
     6  C    0.909253
     7  C   -0.877963
     8  H    0.127123
     9  C   -0.147438
    10  H    0.146121
    11  C   -0.122219
    12  N   -0.299400
    13  H    0.238637
    14  H    0.240864
    15  C   -0.343411
    16  H    0.139598
    17  C   -0.066877
    18  H    0.152079
 Sum of Mulliken charges =  -0.00000
 Mulliken charges with hydrogens summed into heavy atoms:
               1
     2  C   -0.286570
     4  C    0.190202
     6  C    0.909253
     7  C   -0.750840
     9  C   -0.001317
    11  C   -0.122219
    12  N    0.180101
    15  C   -0.203813
    17  C    0.085202
 DipInt: DoE/N= T F RetVal/Mat= T F Init=T NMatP=  1 IDeriv=0 Min/MaxMlt=  0  4
 Entering OneElI...
 OneElI was handed 25769614903 working-precision words.
 Multipole integrals L=0 to 4 MinM= 0 MaxM= 0.
 Requested accuracy = 0.1000D-12
 ShPair: Thresh= 1.00D-13 NBox=     0 BxSize= 0.00D+00 RnKept= 1.55D+01
         NSMCal=                 4950 NSMKep=                4636
 PrmmSu-InSpLW:  IPartL=    0 NPrtUS=    1 NPrtUL=    1 DoSpLW=F IThBeg=    0 IThEnd=    0 NThAct=    1.
 PrsmSu:  NPrtUS=   1 ThrOK=F IAlg=1 NPAlg=1 LenDen=           0 ISkipM=0 DoSpLW=F IThBeg=    0 IThEnd=    0.
 Prism:   IPart=     0 DynPar=F LinDyn=F Incr=          46.
 PRISM was handed 25769306026 working-precision words and  4636 shell-pairs
 IPart=  0 NShTot=        4636 NBatch=          67 AvBLen=        69.2
 PrsmSu-ThDecC:  IPartSL=    0    0 NPrtUSL=    1    1 IThBeg=    0 IThEnd=    0 CPU=   -1 GPU=   -1 NThAct=    1.
 PrSmSu:  NxtVal=             47.
 Electronic moments (au):
        -64.00000000          0.68270681          0.00058503         -0.34108236
      -1060.20415633       -253.87558143        -52.78395438         -0.30889748
         -2.47263350         -0.16430149        639.29699299        -62.60936427
         -2.25009044        -50.38592745        286.82345038       -200.51564989
         27.00193840          4.53713521          8.60508835        -60.36777600
     -38027.19590202      -2726.46910819       -232.02169921       -544.87619173
        397.95470379        -51.91940521        -52.59306277          4.48600231
          6.81573913      -2389.15449044      -1007.08905485       -244.64382408
        314.34448049          7.18187744        -17.95623571
 Electronic spatial extent (au):  <R**2>=           1366.8637
 DipInt: DoE/N= F T RetVal/Mat= T F Init=T NMatP=  1 IDeriv=0 Min/MaxMlt=  0  4
 Nuclear    moments (au):
         64.00000000         -0.00000000          0.00000000         -0.00000000
       1026.08203804        218.17079363          7.85162050          0.00000000
          0.00000000         -0.00000000       -585.22937481         60.85530133
          1.77008180         62.76278188       -284.98566878        182.07806522
        -25.32708418         -4.81565130         -8.29609176         68.28011686
      34603.29292935       1854.78396603          5.73536228        528.14683997
       -532.24505039         29.78948257         55.16327916        -10.01660394
        -10.25827284       1677.83364944        228.04551783         32.90305724
       -326.52600572        -10.07116387         18.51064128
 Total      moments (au):
         -0.00000000          0.68270681          0.00058503         -0.34108236
        -34.12211829        -35.70478780        -44.93233387         -0.30889748
         -2.47263350         -0.16430149         54.06761819         -1.75406293
         -0.48000864         12.37685443          1.83778160        -18.43758467
          1.67485422         -0.27851609          0.30899659          7.91234086
      -3423.90297267       -871.68514216       -226.28633693        -16.72935176
       -134.29034660        -22.12992264          2.57021640         -5.53060163
         -3.44253371       -711.32084100       -779.04353702       -211.74076683
        -12.18152523         -2.88928643          0.55440557
 Traceless Quadrup. (au):
          4.13096170          2.54829219         -6.67925389         -0.30889748
         -2.47263350         -0.16430149
 Charge=             -0.0000 electrons
 Dipole moment (field-independent basis, Debye):
    X=              1.7353    Y=              0.0015    Z=             -0.8669  Tot=              1.9398
 Quadrupole moment (field-independent basis, Debye-Ang):
   XX=            -45.8954   YY=            -48.0242   ZZ=            -60.4355
   XY=             -0.4155   XZ=             -3.3258   YZ=             -0.2210
 Traceless Quadrupole moment (field-independent basis, Debye-Ang):
   XX=              5.5563   YY=              3.4275   ZZ=             -8.9838
   XY=             -0.4155   XZ=             -3.3258   YZ=             -0.2210
 Octapole moment (field-independent basis, Debye-Ang**2):
  XXX=             38.4832  YYY=             -1.2485  ZZZ=             -0.3417  XYY=              8.8094
  XXY=              1.3081  XXZ=            -13.1232  XZZ=              1.1921  YZZ=             -0.1982
  YYZ=              0.2199  XYZ=              5.6317
 Hexadecapole moment (field-independent basis, Debye-Ang**3):
 XXXX=          -1289.6060 YYYY=           -328.3184 ZZZZ=            -85.2303 XXXY=             -6.3011
 XXXZ=            -50.5802 YYYX=             -8.3352 YYYZ=              0.9681 ZZZX=             -2.0831
 ZZZY=             -1.2966 XXYY=           -267.9175 XXZZ=           -293.4252 YYZZ=            -79.7517
 XXYZ=             -4.5881 YYXZ=             -1.0882 ZZXY=              0.2088
 N-N= 3.972897156681D+02 E-N=-1.642219210338D+03  KE= 3.634298169296D+02
 Entering OneElI...
 OneElI was handed 25769655538 working-precision words.
 Calculate electrostatic properties
    NBasis =   261  MinDer = 0  MaxDer = 0
    NGrid  =    18  NMatD  =   1
 Requested accuracy = 0.1000D-12
 ShPair: Thresh= 1.00D-13 NBox=     0 BxSize= 0.00D+00 RnKept= 1.55D+01
         NSMCal=                 4950 NSMKep=                4454
 PrmmSu-InSpLW:  IPartL=    0 NPrtUS=   48 NPrtUL=    1 DoSpLW=F IThBeg=    0 IThEnd=   47 NThAct=   48.
 PrsmSu:  NPrtUS=  48 ThrOK=T IAlg=1 NPAlg=1 LenDen=           0 ISkipM=0 DoSpLW=F IThBeg=    0 IThEnd=   47.
 Prism:   IPart=     0 DynPar=F LinDyn=F Incr=          16.
 PRISM was handed   536769943 working-precision words and  4454 shell-pairs
 PRISM was handed   536769943 working-precision words and  4454 shell-pairs
 PRISM was handed   536769943 working-precision words and  4454 shell-pairs
 PRISM was handed   536769943 working-precision words and  4454 shell-pairs
 PRISM was handed   536769943 working-precision words and  4454 shell-pairs
 PRISM was handed   536769943 working-precision words and  4454 shell-pairs
 PRISM was handed   536769943 working-precision words and  4454 shell-pairs
 PRISM was handed   536769943 working-precision words and  4454 shell-pairs
 PRISM was handed   536769943 working-precision words and  4454 shell-pairs
 PRISM was handed   536769943 working-precision words and  4454 shell-pairs
 PRISM was handed   536769943 working-precision words and  4454 shell-pairs
 PRISM was handed   536769943 working-precision words and  4454 shell-pairs
 PRISM was handed   536769943 working-precision words and  4454 shell-pairs
 PRISM was handed   536769943 working-precision words and  4454 shell-pairs
 PRISM was handed   536769943 working-precision words and  4454 shell-pairs
 PRISM was handed   536769943 working-precision words and  4454 shell-pairs
 PRISM was handed   536769943 working-precision words and  4454 shell-pairs
 PRISM was handed   536769943 working-precision words and  4454 shell-pairs
 PRISM was handed   536769943 working-precision words and  4454 shell-pairs
 PRISM was handed   536769943 working-precision words and  4454 shell-pairs
 PRISM was handed   536769943 working-precision words and  4454 shell-pairs
 PRISM was handed   536769943 working-precision words and  4454 shell-pairs
 PRISM was handed   536769943 working-precision words and  4454 shell-pairs
 PRISM was handed   536769943 working-precision words and  4454 shell-pairs
 PRISM was handed   536769943 working-precision words and  4454 shell-pairs
 PRISM was handed   536769943 working-precision words and  4454 shell-pairs
 PRISM was handed   536769943 working-precision words and  4454 shell-pairs
 PRISM was handed   536769943 working-precision words and  4454 shell-pairs
 PRISM was handed   536769943 working-precision words and  4454 shell-pairs
 PRISM was handed   536769943 working-precision words and  4454 shell-pairs
 PRISM was handed   536769943 working-precision words and  4454 shell-pairs
 PRISM was handed   536769943 working-precision words and  4454 shell-pairs
 PRISM was handed   536769943 working-precision words and  4454 shell-pairs
 PRISM was handed   536769943 working-precision words and  4454 shell-pairs
 PRISM was handed   536769943 working-precision words and  4454 shell-pairs
 PRISM was handed   536769943 working-precision words and  4454 shell-pairs
 PRISM was handed   536769943 working-precision words and  4454 shell-pairs
 PRISM was handed   536769943 working-precision words and  4454 shell-pairs
 PRISM was handed   536769943 working-precision words and  4454 shell-pairs
 PRISM was handed   536769943 working-precision words and  4454 shell-pairs
 PRISM was handed   536769943 working-precision words and  4454 shell-pairs
 PRISM was handed   536769943 working-precision words and  4454 shell-pairs
 PRISM was handed   536769943 working-precision words and  4454 shell-pairs
 PRISM was handed   536769943 working-precision words and  4454 shell-pairs
 PRISM was handed   536769943 working-precision words and  4454 shell-pairs
 PRISM was handed   536769943 working-precision words and  4454 shell-pairs
 PRISM was handed   536769943 working-precision words and  4454 shell-pairs
 PRISM was handed   536769943 working-precision words and  4454 shell-pairs
 IPart= 44 NShTot=        1422 NBatch=          79 AvBLen=        18.0
 PrsmSu-ThDecC:  IPartSL=   44    0 NPrtUSL=   48    1 IThBeg=    0 IThEnd=   47 CPU=   -1 GPU=   -1 NThAct=   48.
 IPart= 30 NShTot=        1530 NBatch=          85 AvBLen=        18.0
 PrsmSu-ThDecC:  IPartSL=   30    0 NPrtUSL=   48    1 IThBeg=    0 IThEnd=   47 CPU=   -1 GPU=   -1 NThAct=   47.
 IPart= 31 NShTot=        1530 NBatch=          85 AvBLen=        18.0
 PrsmSu-ThDecC:  IPartSL=   31    0 NPrtUSL=   48    1 IThBeg=    0 IThEnd=   47 CPU=   -1 GPU=   -1 NThAct=   46.
 IPart= 37 NShTot=        1512 NBatch=          84 AvBLen=        18.0
 IPart= 39 NShTot=        1494 NBatch=          83 AvBLen=        18.0
 PrsmSu-ThDecC:  IPartSL=   37    0 NPrtUSL=   48    1 IThBeg=    0 IThEnd=   47 CPU=   -1 GPU=   -1 NThAct=   45.
 PrsmSu-ThDecC:  IPartSL=   39    0 NPrtUSL=   48    1 IThBeg=    0 IThEnd=   47 CPU=   -1 GPU=   -1 NThAct=   44.
 IPart= 15 NShTot=        1710 NBatch=          95 AvBLen=        18.0
 IPart= 11 NShTot=        1764 NBatch=          98 AvBLen=        18.0
 PrsmSu-ThDecC:  IPartSL=   15    0 NPrtUSL=   48    1 IThBeg=    0 IThEnd=   47 CPU=   -1 GPU=   -1 NThAct=   43.
 IPart= 40 NShTot=        1476 NBatch=          82 AvBLen=        18.0
 IPart= 14 NShTot=        1746 NBatch=          97 AvBLen=        18.0
 IPart= 29 NShTot=        1530 NBatch=          85 AvBLen=        18.0
 IPart= 24 NShTot=        1602 NBatch=          89 AvBLen=        18.0
 PrsmSu-ThDecC:  IPartSL=   11    0 NPrtUSL=   48    1 IThBeg=    0 IThEnd=   47 CPU=   -1 GPU=   -1 NThAct=   42.
 IPart= 21 NShTot=        1620 NBatch=          90 AvBLen=        18.0
 IPart=  8 NShTot=        1908 NBatch=         106 AvBLen=        18.0
 PrsmSu-ThDecC:  IPartSL=   24    0 NPrtUSL=   48    1 IThBeg=    0 IThEnd=   47 CPU=   -1 GPU=   -1 NThAct=   41.
 PrsmSu-ThDecC:  IPartSL=    8    0 NPrtUSL=   48    1 IThBeg=    0 IThEnd=   47 CPU=   -1 GPU=   -1 NThAct=   40.
 PrsmSu-ThDecC:  IPartSL=   29    0 NPrtUSL=   48    1 IThBeg=    0 IThEnd=   47 CPU=   -1 GPU=   -1 NThAct=   39.
 PrsmSu-ThDecC:  IPartSL=   21    0 NPrtUSL=   48    1 IThBeg=    0 IThEnd=   47 CPU=   -1 GPU=   -1 NThAct=   38.
 IPart=  3 NShTot=        2088 NBatch=         116 AvBLen=        18.0
 IPart=  2 NShTot=        2088 NBatch=         116 AvBLen=        18.0
 PrsmSu-ThDecC:  IPartSL=   40    0 NPrtUSL=   48    1 IThBeg=    0 IThEnd=   47 CPU=   -1 GPU=   -1 NThAct=   37.
 IPart=  5 NShTot=        2070 NBatch=         115 AvBLen=        18.0
 PrsmSu-ThDecC:  IPartSL=    3    0 NPrtUSL=   48    1 IThBeg=    0 IThEnd=   47 CPU=   -1 GPU=   -1 NThAct=   36.
 IPart=  0 NShTot=        2286 NBatch=         127 AvBLen=        18.0
 PrsmSu-ThDecC:  IPartSL=    5    0 NPrtUSL=   48    1 IThBeg=    0 IThEnd=   47 CPU=   -1 GPU=   -1 NThAct=   35.
 PrsmSu-ThDecC:  IPartSL=    0    0 NPrtUSL=   48    1 IThBeg=    0 IThEnd=   47 CPU=   -1 GPU=   -1 NThAct=   34.
 PrsmSu-ThDecC:  IPartSL=   14    0 NPrtUSL=   48    1 IThBeg=    0 IThEnd=   47 CPU=   -1 GPU=   -1 NThAct=   33.
 PrsmSu-ThDecC:  IPartSL=    2    0 NPrtUSL=   48    1 IThBeg=    0 IThEnd=   47 CPU=   -1 GPU=   -1 NThAct=   32.
 IPart= 12 NShTot=        1764 NBatch=          98 AvBLen=        18.0
 PrsmSu-ThDecC:  IPartSL=   12    0 NPrtUSL=   48    1 IThBeg=    0 IThEnd=   47 CPU=   -1 GPU=   -1 NThAct=   31.
 IPart= 22 NShTot=        1620 NBatch=          90 AvBLen=        18.0
 PrsmSu-ThDecC:  IPartSL=   22    0 NPrtUSL=   48    1 IThBeg=    0 IThEnd=   47 CPU=   -1 GPU=   -1 NThAct=   30.
 IPart= 36 NShTot=        1512 NBatch=          84 AvBLen=        18.0
 PrsmSu-ThDecC:  IPartSL=   36    0 NPrtUSL=   48    1 IThBeg=    0 IThEnd=   47 CPU=   -1 GPU=   -1 NThAct=   29.
 IPart= 35 NShTot=        1512 NBatch=          84 AvBLen=        18.0
 IPart= 47 NShTot=        1404 NBatch=          78 AvBLen=        18.0
 PrsmSu-ThDecC:  IPartSL=   35    0 NPrtUSL=   48    1 IThBeg=    0 IThEnd=   47 CPU=   -1 GPU=   -1 NThAct=   28.
 PrsmSu-ThDecC:  IPartSL=   47    0 NPrtUSL=   48    1 IThBeg=    0 IThEnd=   47 CPU=   -1 GPU=   -1 NThAct=   27.
 IPart= 46 NShTot=        1404 NBatch=          78 AvBLen=        18.0
 PrsmSu-ThDecC:  IPartSL=   46    0 NPrtUSL=   48    1 IThBeg=    0 IThEnd=   47 CPU=   -1 GPU=   -1 NThAct=   26.
 IPart= 33 NShTot=        1530 NBatch=          85 AvBLen=        18.0
 PrsmSu-ThDecC:  IPartSL=   33    0 NPrtUSL=   48    1 IThBeg=    0 IThEnd=   47 CPU=   -1 GPU=   -1 NThAct=   25.
 IPart= 16 NShTot=        1674 NBatch=          93 AvBLen=        18.0
 PrsmSu-ThDecC:  IPartSL=   16    0 NPrtUSL=   48    1 IThBeg=    0 IThEnd=   47 CPU=   -1 GPU=   -1 NThAct=   24.
 IPart= 10 NShTot=        1800 NBatch=         100 AvBLen=        18.0
 PrsmSu-ThDecC:  IPartSL=   10    0 NPrtUSL=   48    1 IThBeg=    0 IThEnd=   47 CPU=   -1 GPU=   -1 NThAct=   23.
 IPart= 34 NShTot=        1530 NBatch=          85 AvBLen=        18.0
 PrsmSu-ThDecC:  IPartSL=   34    0 NPrtUSL=   48    1 IThBeg=    0 IThEnd=   47 CPU=   -1 GPU=   -1 NThAct=   22.
 IPart= 32 NShTot=        1530 NBatch=          85 AvBLen=        18.0
 PrsmSu-ThDecC:  IPartSL=   32    0 NPrtUSL=   48    1 IThBeg=    0 IThEnd=   47 CPU=   -1 GPU=   -1 NThAct=   21.
 IPart=  7 NShTot=        1980 NBatch=         110 AvBLen=        18.0
 PrsmSu-ThDecC:  IPartSL=    7    0 NPrtUSL=   48    1 IThBeg=    0 IThEnd=   47 CPU=   -1 GPU=   -1 NThAct=   20.
 IPart= 13 NShTot=        1746 NBatch=          97 AvBLen=        18.0
 IPart=  9 NShTot=        1836 NBatch=         102 AvBLen=        18.0
 PrsmSu-ThDecC:  IPartSL=   13    0 NPrtUSL=   48    1 IThBeg=    0 IThEnd=   47 CPU=   -1 GPU=   -1 NThAct=   19.
 PrsmSu-ThDecC:  IPartSL=    9    0 NPrtUSL=   48    1 IThBeg=    0 IThEnd=   47 CPU=   -1 GPU=   -1 NThAct=   18.
 IPart=  4 NShTot=        2088 NBatch=         116 AvBLen=        18.0
 PrsmSu-ThDecC:  IPartSL=    4    0 NPrtUSL=   48    1 IThBeg=    0 IThEnd=   47 CPU=   -1 GPU=   -1 NThAct=   17.
 IPart=  1 NShTot=        2178 NBatch=         121 AvBLen=        18.0
 PrsmSu-ThDecC:  IPartSL=    1    0 NPrtUSL=   48    1 IThBeg=    0 IThEnd=   47 CPU=   -1 GPU=   -1 NThAct=   16.
 IPart= 23 NShTot=        1620 NBatch=          90 AvBLen=        18.0
 PrsmSu-ThDecC:  IPartSL=   23    0 NPrtUSL=   48    1 IThBeg=    0 IThEnd=   47 CPU=   -1 GPU=   -1 NThAct=   15.
 IPart= 20 NShTot=        1620 NBatch=          90 AvBLen=        18.0
 PrsmSu-ThDecC:  IPartSL=   20    0 NPrtUSL=   48    1 IThBeg=    0 IThEnd=   47 CPU=   -1 GPU=   -1 NThAct=   14.
 IPart= 27 NShTot=        1548 NBatch=          86 AvBLen=        18.0
 PrsmSu-ThDecC:  IPartSL=   27    0 NPrtUSL=   48    1 IThBeg=    0 IThEnd=   47 CPU=   -1 GPU=   -1 NThAct=   13.
 IPart= 41 NShTot=        1476 NBatch=          82 AvBLen=        18.0
 PrsmSu-ThDecC:  IPartSL=   41    0 NPrtUSL=   48    1 IThBeg=    0 IThEnd=   47 CPU=   -1 GPU=   -1 NThAct=   12.
 IPart= 19 NShTot=        1620 NBatch=          90 AvBLen=        18.0
 PrsmSu-ThDecC:  IPartSL=   19    0 NPrtUSL=   48    1 IThBeg=    0 IThEnd=   47 CPU=   -1 GPU=   -1 NThAct=   11.
 IPart= 17 NShTot=        1638 NBatch=          91 AvBLen=        18.0
 PrsmSu-ThDecC:  IPartSL=   17    0 NPrtUSL=   48    1 IThBeg=    0 IThEnd=   47 CPU=   -1 GPU=   -1 NThAct=   10.
 IPart= 28 NShTot=        1530 NBatch=          85 AvBLen=        18.0
 PrsmSu-ThDecC:  IPartSL=   28    0 NPrtUSL=   48    1 IThBeg=    0 IThEnd=   47 CPU=   -1 GPU=   -1 NThAct=    9.
 IPart= 25 NShTot=        1566 NBatch=          87 AvBLen=        18.0
 PrsmSu-ThDecC:  IPartSL=   25    0 NPrtUSL=   48    1 IThBeg=    0 IThEnd=   47 CPU=   -1 GPU=   -1 NThAct=    8.
 IPart= 45 NShTot=        1404 NBatch=          78 AvBLen=        18.0
 PrsmSu-ThDecC:  IPartSL=   45    0 NPrtUSL=   48    1 IThBeg=    0 IThEnd=   47 CPU=   -1 GPU=   -1 NThAct=    7.
 IPart= 38 NShTot=        1512 NBatch=          84 AvBLen=        18.0
 PrsmSu-ThDecC:  IPartSL=   38    0 NPrtUSL=   48    1 IThBeg=    0 IThEnd=   47 CPU=   -1 GPU=   -1 NThAct=    6.
 IPart= 26 NShTot=        1566 NBatch=          87 AvBLen=        18.0
 PrsmSu-ThDecC:  IPartSL=   26    0 NPrtUSL=   48    1 IThBeg=    0 IThEnd=   47 CPU=   -1 GPU=   -1 NThAct=    5.
 IPart= 43 NShTot=        1458 NBatch=          81 AvBLen=        18.0
 PrsmSu-ThDecC:  IPartSL=   43    0 NPrtUSL=   48    1 IThBeg=    0 IThEnd=   47 CPU=   -1 GPU=   -1 NThAct=    4.
 IPart= 18 NShTot=        1620 NBatch=          90 AvBLen=        18.0
 PrsmSu-ThDecC:  IPartSL=   18    0 NPrtUSL=   48    1 IThBeg=    0 IThEnd=   47 CPU=   -1 GPU=   -1 NThAct=    3.
 IPart= 42 NShTot=        1476 NBatch=          82 AvBLen=        18.0
 PrsmSu-ThDecC:  IPartSL=   42    0 NPrtUSL=   48    1 IThBeg=    0 IThEnd=   47 CPU=   -1 GPU=   -1 NThAct=    2.
 IPart=  6 NShTot=        2034 NBatch=         113 AvBLen=        18.0
 PrsmSu-ThDecC:  IPartSL=    6    0 NPrtUSL=   48    1 IThBeg=    0 IThEnd=   47 CPU=   -1 GPU=   -1 NThAct=    1.
 PrSmSu:  NxtVal=            769.
 --------------------------------------------------------
       Center         ----      EFG at Nuclei      ----
                      3XX-RR        3YY-RR        3ZZ-RR
 --------------------------------------------------------
     1   Atom       -0.298433      0.133515      0.164918
     2   Atom        0.137479      0.056415     -0.193893
     3   Atom        0.120983     -0.204666      0.083683
     4   Atom        0.139823      0.097702     -0.237525
     5   Atom        0.101940     -0.199200      0.097260
     6   Atom        0.084264      0.154951     -0.239216
     7   Atom        0.161358      0.145925     -0.307283
     8   Atom        0.000854     -0.165046      0.164193
     9   Atom        0.137918      0.061396     -0.199315
    10   Atom        0.070531     -0.244540      0.174009
    11   Atom       -0.040538      0.311413     -0.270876
    12   Atom       -0.548344     -0.455052      1.003396
    13   Atom       -0.000673     -0.192880      0.193553
    14   Atom        0.086822     -0.242086      0.155263
    15   Atom        0.129170      0.068215     -0.197384
    16   Atom       -0.008454     -0.158994      0.167448
    17   Atom        0.175300      0.132927     -0.308227
    18   Atom        0.074910     -0.241106      0.166195
 --------------------------------------------------------
                        XY            XZ            YZ
 --------------------------------------------------------
     1   Atom        0.095920     -0.029426      0.014288
     2   Atom        0.052220     -0.029411     -0.160679
     3   Atom        0.103994     -0.048037      0.180090
     4   Atom        0.068556     -0.055513     -0.188631
     5   Atom        0.121442     -0.055006      0.159354
     6   Atom        0.012140      0.009807      0.019786
     7   Atom       -0.023634      0.029001      0.036243
     8   Atom       -0.212343     -0.021571     -0.032611
     9   Atom        0.006972      0.027556      0.024337
    10   Atom        0.167026      0.000238     -0.002206
    11   Atom        0.038008     -0.018332      0.038299
    12   Atom        0.000746      0.143936     -0.103429
    13   Atom       -0.241929      0.094191      0.124521
    14   Atom        0.175275      0.086804     -0.191627
    15   Atom       -0.024355      0.029193      0.005603
    16   Atom       -0.213239     -0.030643     -0.046120
    17   Atom        0.024100      0.036732      0.034586
    18   Atom        0.163505      0.007253     -0.022684
 --------------------------------------------------------


 ---------------------------------------------------------------------------------
              Nuclear Quadrupole Coupling Constant in Principal Axis System
 ---------------------------------------------------------------------------------

       Atom             a.u.   MegaHertz   Gauss  10(-4) cm-1        Axes

              Baa    -0.5626     2.702     0.964     0.901  0.9901 -0.1008 -0.0977
    12 N(14)  Bbb    -0.4612     2.215     0.790     0.739  0.1069  0.9925  0.0596
              Bcc     1.0238    -4.917    -1.754    -1.640  0.0909 -0.0694  0.9934
 

 ---------------------------------------------------------------------------------

 No NMR shielding tensors so no spin-rotation constants.
 Leave Link  601 at Thu Apr 21 16:29:14 2022, MaxMem= 25769803776 cpu:               7.2 elap:               0.2
 Calling FoFJK, ICntrl=      2127 FMM=F ISym2X=0 I1Cent= 0 IOpClX= 0 NMat=1 NMatS=1 NMatT=0.
 ***** Axes restored to original set *****
 -------------------------------------------------------------------
 Center     Atomic                   Forces (Hartrees/Bohr)
 Number     Number              X              Y              Z
 -------------------------------------------------------------------
      1        1           0.000890136    0.000873897    0.001260177
      2        6          -0.003486090   -0.005337515   -0.001786501
      3        1           0.000386905   -0.000573882   -0.000411460
      4        6          -0.000411067    0.009034319    0.002471847
      5        1           0.000318655    0.000993177   -0.000851467
      6        6          -0.006949625   -0.006424664    0.000275384
      7        6           0.013431351    0.001988755   -0.001082569
      8        1          -0.000297170   -0.002092214   -0.001993612
      9        6          -0.014151319    0.001438133    0.008098477
     10        1           0.000846958   -0.001673282   -0.000212699
     11        6           0.002541099    0.012299699   -0.010980824
     12        7           0.002680015   -0.006207808    0.004941617
     13        1           0.000768278    0.003648624    0.002819069
     14        1           0.000539588   -0.002116081   -0.004203319
     15        6          -0.012994412   -0.007555874   -0.002732688
     16        1           0.000820277    0.000294426    0.001544089
     17        6           0.015143163   -0.000260753    0.000383469
     18        1          -0.000076741    0.001671042    0.002461007
 -------------------------------------------------------------------
 Cartesian Forces:  Max     0.015143163 RMS     0.005375040

 GradGradGradGradGradGradGradGradGradGradGradGradGradGradGradGradGradGrad
 Berny optimization.
 FormGI is forming the generalized inverse of G from B-inverse, IUseBI=4.
 Internal  Forces:  Max     0.009608273 RMS     0.002522622
 Search for a local minimum.
 Step number   1 out of a maximum of   91
 All quantities printed in internal units (Hartrees-Bohrs-Radians)
 Mixed Optimization -- RFO/linear search
 Second derivative matrix not updated -- first step.
 ITU=  0
     Eigenvalues ---    0.01169   0.01705   0.01806   0.02054   0.02077
     Eigenvalues ---    0.02090   0.02094   0.02098   0.02103   0.02116
     Eigenvalues ---    0.02122   0.02147   0.02889   0.02891   0.04597
     Eigenvalues ---    0.15994   0.15996   0.16000   0.16000   0.16000
     Eigenvalues ---    0.16000   0.16000   0.16000   0.16000   0.21971
     Eigenvalues ---    0.22001   0.22923   0.23906   0.24524   0.24995
     Eigenvalues ---    0.35045   0.35059   0.35215   0.35218   0.35252
     Eigenvalues ---    0.35366   0.35439   0.35796   0.41408   0.42246
     Eigenvalues ---    0.45161   0.45172   0.45565   0.45722   0.45789
     Eigenvalues ---    0.46098   0.46265   0.57324
 RFO step:  Lambda=-3.86176037D-03 EMin= 1.16896968D-02
 Linear search not attempted -- first point.
 Iteration  1 RMS(Cart)=  0.03756114 RMS(Int)=  0.00123907
 Iteration  2 RMS(Cart)=  0.00163542 RMS(Int)=  0.00073441
 Iteration  3 RMS(Cart)=  0.00000112 RMS(Int)=  0.00073441
 Iteration  4 RMS(Cart)=  0.00000000 RMS(Int)=  0.00073441
 Variable       Old X    -DE/DX   Delta X   Delta X   Delta X     New X
                                 (Linear)    (Quad)   (Total)
    R1        2.05085  -0.00101   0.00000  -0.00283  -0.00283   2.04801
    R2        2.04968  -0.00049   0.00000  -0.00137  -0.00137   2.04831
    R3        2.53123  -0.00282   0.00000  -0.00488  -0.00488   2.52635
    R4        2.05601  -0.00065   0.00000  -0.00184  -0.00184   2.05417
    R5        2.77701   0.00224   0.00000   0.00618   0.00618   2.78319
    R6        2.64379   0.00134   0.00000   0.00295   0.00263   2.64642
    R7        2.64424   0.00213   0.00000   0.00465   0.00435   2.64859
    R8        2.05327  -0.00241   0.00000  -0.00676  -0.00676   2.04651
    R9        2.64577  -0.00961   0.00000  -0.02087  -0.02089   2.62487
   R10        2.05267  -0.00066   0.00000  -0.00186  -0.00186   2.05081
   R11        2.63678   0.00532   0.00000   0.01133   0.01163   2.64841
   R12        2.64370   0.00333   0.00000   0.00722   0.00722   2.65092
   R13        2.63708   0.00400   0.00000   0.00851   0.00884   2.64591
   R14        1.91777  -0.00379   0.00000  -0.00833  -0.00833   1.90944
   R15        1.91790  -0.00387   0.00000  -0.00850  -0.00850   1.90939
   R16        2.05323  -0.00087   0.00000  -0.00244  -0.00244   2.05079
   R17        2.64668  -0.00933   0.00000  -0.02034  -0.02033   2.62636
   R18        2.05580  -0.00254   0.00000  -0.00716  -0.00716   2.04864
    A1        2.04222  -0.00040   0.00000  -0.00235  -0.00239   2.03983
    A2        2.10044   0.00207   0.00000   0.01271   0.01267   2.11310
    A3        2.14033  -0.00166   0.00000  -0.01004  -0.01009   2.13024
    A4        2.07887  -0.00272   0.00000  -0.01194  -0.01197   2.06690
    A5        2.17544   0.00551   0.00000   0.02470   0.02467   2.20012
    A6        2.02848  -0.00279   0.00000  -0.01240  -0.01243   2.01606
    A7        2.14043  -0.00030   0.00000  -0.00068  -0.00049   2.13994
    A8        2.07680   0.00377   0.00000   0.01535   0.01554   2.09234
    A9        2.06579  -0.00346   0.00000  -0.01448  -0.01491   2.05088
   A10        2.10755  -0.00301   0.00000  -0.01549  -0.01550   2.09205
   A11        2.10614   0.00279   0.00000   0.01141   0.01124   2.11738
   A12        2.06947   0.00022   0.00000   0.00421   0.00419   2.07365
   A13        2.07484   0.00150   0.00000   0.00960   0.00932   2.08416
   A14        2.10951  -0.00022   0.00000  -0.00221  -0.00169   2.10782
   A15        2.09884  -0.00128   0.00000  -0.00740  -0.00768   2.09116
   A16        2.09902   0.00117   0.00000   0.01313   0.00905   2.10807
   A17        2.06741  -0.00155   0.00000   0.00076  -0.00201   2.06540
   A18        2.10068   0.00104   0.00000   0.01260   0.00852   2.10920
   A19        1.98646   0.00273   0.00000   0.01811   0.01799   2.00445
   A20        1.98620   0.00266   0.00000   0.01767   0.01755   2.00374
   A21        1.96140  -0.00326   0.00000  -0.01769  -0.01787   1.94353
   A22        2.09854  -0.00093   0.00000  -0.00582  -0.00612   2.09242
   A23        2.10776  -0.00098   0.00000  -0.00570  -0.00512   2.10264
   A24        2.07687   0.00191   0.00000   0.01155   0.01125   2.08813
   A25        2.10734   0.00354   0.00000   0.01469   0.01461   2.12195
   A26        2.10326  -0.00333   0.00000  -0.01676  -0.01675   2.08652
   A27        2.07223  -0.00020   0.00000   0.00234   0.00235   2.07458
    D1        0.01340   0.00055   0.00000   0.01514   0.01514   0.02854
    D2        3.12386   0.00091   0.00000   0.02932   0.02932  -3.13001
    D3       -3.10637  -0.00004   0.00000  -0.00272  -0.00272  -3.10909
    D4        0.00409   0.00032   0.00000   0.01146   0.01146   0.01554
    D5        0.52361  -0.00125   0.00000  -0.07446  -0.07453   0.44908
    D6       -2.63792  -0.00101   0.00000  -0.06268  -0.06260  -2.70052
    D7       -2.64830  -0.00091   0.00000  -0.06066  -0.06074  -2.70904
    D8        0.47336  -0.00067   0.00000  -0.04888  -0.04881   0.42455
    D9       -0.00915   0.00099   0.00000   0.03995   0.03976   0.03060
   D10        3.13963   0.00043   0.00000   0.01742   0.01738  -3.12617
   D11       -3.13093   0.00067   0.00000   0.02792   0.02777  -3.10316
   D12        0.01786   0.00012   0.00000   0.00539   0.00539   0.02325
   D13       -3.13974  -0.00052   0.00000  -0.02218  -0.02227   3.12118
   D14        0.03096  -0.00080   0.00000  -0.03296  -0.03294  -0.00198
   D15       -0.01722  -0.00026   0.00000  -0.01077  -0.01080  -0.02802
   D16       -3.12971  -0.00054   0.00000  -0.02155  -0.02147   3.13201
   D17        3.09630   0.00114   0.00000   0.04668   0.04666  -3.14022
   D18       -0.04656   0.00091   0.00000   0.03818   0.03807  -0.00849
   D19       -0.03825   0.00061   0.00000   0.02472   0.02460  -0.01366
   D20        3.10208   0.00037   0.00000   0.01622   0.01600   3.11808
   D21        3.02308   0.00207   0.00000   0.08192   0.08173   3.10481
   D22        0.07252  -0.00188   0.00000  -0.07504  -0.07498  -0.00246
   D23       -0.11980   0.00184   0.00000   0.07331   0.07311  -0.04668
   D24       -3.07035  -0.00212   0.00000  -0.08365  -0.08359   3.12924
   D25        2.80213  -0.00163   0.00000  -0.07354  -0.07389   2.72824
   D26        0.52434  -0.00206   0.00000  -0.08208  -0.08256   0.44178
   D27       -0.53416   0.00212   0.00000   0.08514   0.08562  -0.44855
   D28       -2.81195   0.00169   0.00000   0.07659   0.07695  -2.73500
   D29        3.06506   0.00194   0.00000   0.07568   0.07554   3.14060
   D30       -0.07179   0.00178   0.00000   0.06975   0.06961  -0.00218
   D31        0.11469  -0.00204   0.00000  -0.08150  -0.08133   0.03336
   D32       -3.02217  -0.00220   0.00000  -0.08743  -0.08726  -3.10942
   D33        0.04520  -0.00062   0.00000  -0.02732  -0.02725   0.01796
   D34       -3.12498  -0.00040   0.00000  -0.01704  -0.01696   3.14124
   D35       -3.09171  -0.00078   0.00000  -0.03313  -0.03311  -3.12482
   D36        0.02129  -0.00055   0.00000  -0.02285  -0.02283  -0.00154
         Item               Value     Threshold  Converged?
 Maximum Force            0.009608     0.000450     NO 
 RMS     Force            0.002523     0.000300     NO 
 Maximum Displacement     0.129852     0.001800     NO 
 RMS     Displacement     0.037243     0.001200     NO 
 Predicted change in Energy=-2.159628D-03
 GradGradGradGradGradGradGradGradGradGradGradGradGradGradGradGradGradGrad

                          Input orientation:                          
 ---------------------------------------------------------------------
 Center     Atomic      Atomic             Coordinates (Angstroms)
 Number     Number       Type             X           Y           Z
 ---------------------------------------------------------------------
      1          1           0        0.954452   -0.266596    0.355225
      2          6           0        2.033685   -0.174976    0.392678
      3          1           0        2.433355    0.743789    0.806215
      4          6           0        2.825282   -1.153921   -0.057111
      5          1           0        2.361509   -2.037443   -0.488293
      6          6           0        4.298047   -1.151590   -0.046822
      7          6           0        5.045169   -0.402349    0.870584
      8          1           0        4.538834    0.183483    1.627709
      9          6           0        6.433944   -0.405815    0.844517
     10          1           0        6.982124    0.185311    1.571027
     11          6           0        7.131412   -1.171494   -0.099632
     12          7           0        8.532811   -1.141216   -0.154646
     13          1           0        8.959068   -1.956986   -0.571535
     14          1           0        8.985856   -0.892421    0.713555
     15          6           0        6.393368   -1.934236   -1.012845
     16          1           0        6.907809   -2.535709   -1.755343
     17          6           0        5.004076   -1.928582   -0.975378
     18          1           0        4.458697   -2.528547   -1.695003
 ---------------------------------------------------------------------
                    Distance matrix (angstroms):
                    1          2          3          4          5
     1  H    0.000000
     2  C    1.083763   0.000000
     3  H    1.847004   1.083918   0.000000
     4  C    2.111249   1.336888   2.121378   0.000000
     5  H    2.413966   2.086231   3.068577   1.087020   0.000000
     6  C    3.482023   2.504849   2.792349   1.472803   2.174813
     7  C    4.125287   3.057634   2.852955   2.520590   3.423756
     8  H    3.830089   2.815949   2.328485   2.750187   3.761744
     9  C    5.503056   4.429416   4.162664   3.794079   4.585119
    10  H    6.165649   5.099545   4.646304   4.660870   5.525533
    11  C    6.259439   5.217493   5.153699   4.306375   4.863424
    12  N    7.645682   6.593316   6.455994   5.708376   6.244958
    13  H    8.233479   7.215691   7.195646   6.207485   6.598574
    14  H    8.063716   6.996454   6.754335   6.214095   6.829164
    15  C    5.851021   4.906865   5.114930   3.775388   4.067148
    16  H    6.711619   5.826160   6.110436   4.632532   4.745791
    17  C    4.575168   3.710786   4.113909   2.488063   2.689287
    18  H    4.647536   3.972202   4.589803   2.690786   2.468913
                    6          7          8          9         10
     6  C    0.000000
     7  C    1.400423   0.000000
     8  H    2.155099   1.082965   0.000000
     9  C    2.431609   1.389024   2.133566   0.000000
    10  H    3.407200   2.141906   2.443948   1.085241   0.000000
    11  C    2.833927   2.425966   3.397224   1.401479   2.157385
    12  N    4.236149   3.709537   4.569843   2.438110   2.672499
    13  H    4.759107   4.451428   5.381148   3.284446   3.617778
    14  H    4.756143   3.974147   4.665753   2.601191   2.431400
    15  C    2.436413   2.776981   3.859606   2.405724   3.393451
    16  H    3.412578   3.862143   4.944805   3.394152   4.298164
    17  C    1.401574   2.395548   3.384277   2.770443   3.855567
    18  H    2.153676   3.383327   4.289749   3.854446   4.939602
                   11         12         13         14         15
    11  C    0.000000
    12  N    1.402805   0.000000
    13  H    2.044509   1.010433   0.000000
    14  H    2.044045   1.010407   1.668974   0.000000
    15  C    1.400158   2.437745   2.603476   3.284331   0.000000
    16  H    2.156956   2.673476   2.438029   3.621344   1.085229
    17  C    2.421914   3.707494   3.975658   4.447549   1.389808
    18  H    3.395615   4.571191   4.673564   5.382678   2.135766
                   16         17         18
    16  H    0.000000
    17  C    2.145029   0.000000
    18  H    2.449866   1.084093   0.000000
 Stoichiometry    C8H9N
 Framework group  C1[X(C8H9N)]
 Deg. of freedom    48
 Full point group                 C1      NOp   1
 Largest Abelian subgroup         C1      NOp   1
 Largest concise Abelian subgroup C1      NOp   1
                         Standard orientation:                         
 ---------------------------------------------------------------------
 Center     Atomic      Atomic             Coordinates (Angstroms)
 Number     Number       Type             X           Y           Z
 ---------------------------------------------------------------------
      1          1           0       -4.453986   -0.239782    0.148760
      2          6           0       -3.397304   -0.465464    0.232620
      3          1           0       -3.134144   -1.434636    0.640456
      4          6           0       -2.470410    0.419505   -0.148125
      5          1           0       -2.799973    1.386058   -0.520655
      6          6           0       -1.011623    0.223666   -0.095853
      7          6           0       -0.418243   -1.044029   -0.140990
      8          1           0       -1.037800   -1.926041   -0.245944
      9          6           0        0.960388   -1.198763   -0.071546
     10          1           0        1.387455   -2.195676   -0.110611
     11          6           0        1.802493   -0.083685    0.036170
     12          7           0        3.191695   -0.241504    0.150499
     13          1           0        3.735567    0.556294   -0.147318
     14          1           0        3.554288   -1.100249   -0.239379
     15          6           0        1.219380    1.188851    0.068921
     16          1           0        1.847791    2.069640    0.152793
     17          6           0       -0.160774    1.333853   -0.006685
     18          1           0       -0.584510    2.331310    0.021334
 ---------------------------------------------------------------------
 Rotational constants (GHZ):           4.9829420           0.9890884           0.8323071
 Standard basis: 6-311++G(d,p) (5D, 7F)
 There are   270 symmetry adapted cartesian basis functions of A   symmetry.
 There are   261 symmetry adapted basis functions of A   symmetry.
   261 basis functions,   405 primitive gaussians,   270 cartesian basis functions
    32 alpha electrons       32 beta electrons
       nuclear repulsion energy       397.0457275310 Hartrees.
 NAtoms=   18 NActive=   18 NUniq=   18 SFac= 1.00D+00 NAtFMM=   60 NAOKFM=F Big=F
 Integral buffers will be    131072 words long.
 Raffenetti 2 integral format.
 Two-electron integral symmetry is turned on.
 Nuclear repulsion after empirical dispersion term =      397.0141756016 Hartrees.
 One-electron integrals computed using PRISM.
 NBasis=   261 RedAO= T EigKep=  2.06D-06  NBF=   261
 NBsUse=   260 1.00D-06 EigRej=  8.69D-07 NBFU=   260
 Initial guess from the checkpoint file:  "4AS-1.chk"
 B after Tr=     0.000000   -0.000000    0.000000
         Rot=    0.999999   -0.000977    0.000080    0.001095 Ang=  -0.17 deg.
 ExpMin= 3.60D-02 ExpMax= 6.29D+03 ExpMxC= 9.49D+02 IAcc=3 IRadAn=         5 AccDes= 0.00D+00
 Harris functional with IExCor=  402 and IRadAn=       5 diagonalized for initial guess.
 HarFok:  IExCor=  402 AccDes= 0.00D+00 IRadAn=         5 IDoV= 1 UseB2=F ITyADJ=14
 ICtDFT=  3500011 ScaDFX=  1.000000  1.000000  1.000000  1.000000
 FoFCou: FMM=F IPFlag=           0 FMFlag=      100000 FMFlg1=           0
         NFxFlg=           0 DoJE=T BraDBF=F KetDBF=T FulRan=T
         wScrn=  0.000000 ICntrl=       500 IOpCl=  0 I1Cent=   200000004 NGrid=           0
         NMat0=    1 NMatS0=      1 NMatT0=    0 NMatD0=    1 NMtDS0=    0 NMtDT0=    0
 Petite list used in FoFCou.
 Requested convergence on RMS density matrix=1.00D-08 within 128 cycles.
 Requested convergence on MAX density matrix=1.00D-06.
 Requested convergence on             energy=1.00D-06.
 No special actions if energy rises.
 SCF Done:  E(RB3LYP) =  -365.138733198     A.U. after   12 cycles
            NFock= 12  Conv=0.84D-08     -V/T= 2.0046
 Calling FoFJK, ICntrl=      2127 FMM=F ISym2X=0 I1Cent= 0 IOpClX= 0 NMat=1 NMatS=1 NMatT=0.
 ***** Axes restored to original set *****
 -------------------------------------------------------------------
 Center     Atomic                   Forces (Hartrees/Bohr)
 Number     Number              X              Y              Z
 -------------------------------------------------------------------
      1        1           0.000368565    0.000191652    0.000003305
      2        6          -0.000643637   -0.001455623    0.000452668
      3        1           0.000021719    0.000452601    0.000075625
      4        6           0.002554040    0.001936895    0.000716955
      5        1           0.000124783   -0.000182617   -0.001177717
      6        6          -0.004507304   -0.002091640   -0.000599240
      7        6           0.003653803    0.001166967   -0.000747433
      8        1          -0.000621543   -0.000084535    0.000217684
      9        6          -0.002452713    0.000944812    0.000972179
     10        1           0.000595709   -0.000324100   -0.000234399
     11        6           0.003946461   -0.000518504   -0.000076557
     12        7          -0.003108329   -0.000968788    0.001008799
     13        1          -0.000176520    0.000610316   -0.000348179
     14        1          -0.000126720    0.000471348   -0.000527544
     15        6          -0.001941243   -0.000580059   -0.000530582
     16        1           0.000422343    0.000210330    0.000320840
     17        6           0.002687940    0.000487435    0.000412887
     18        1          -0.000797355   -0.000266489    0.000060707
 -------------------------------------------------------------------
 Cartesian Forces:  Max     0.004507304 RMS     0.001401324

 GradGradGradGradGradGradGradGradGradGradGradGradGradGradGradGradGradGrad
 Berny optimization.
 Using GEDIIS/GDIIS optimizer.
 FormGI is forming the generalized inverse of G from B-inverse, IUseBI=4.
 Internal  Forces:  Max     0.003410864 RMS     0.000668087
 Search for a local minimum.
 Step number   2 out of a maximum of   91
 All quantities printed in internal units (Hartrees-Bohrs-Radians)
 Mixed Optimization -- En-DIIS/RFO-DIIS
 Update second derivatives using D2CorX and points    1    2
 DE= -2.05D-03 DEPred=-2.16D-03 R= 9.50D-01
 TightC=F SS=  1.41D+00  RLast= 3.30D-01 DXNew= 5.0454D-01 9.9104D-01
 Trust test= 9.50D-01 RLast= 3.30D-01 DXMaxT set to 5.05D-01
 ITU=  1  0
 Use linear search instead of GDIIS.
     Eigenvalues ---    0.01062   0.01705   0.01796   0.02051   0.02085
     Eigenvalues ---    0.02093   0.02097   0.02102   0.02113   0.02121
     Eigenvalues ---    0.02133   0.02551   0.02888   0.02917   0.04404
     Eigenvalues ---    0.15339   0.15998   0.15998   0.15999   0.16000
     Eigenvalues ---    0.16000   0.16000   0.16000   0.16157   0.21357
     Eigenvalues ---    0.22008   0.22786   0.23906   0.24979   0.25003
     Eigenvalues ---    0.35035   0.35095   0.35195   0.35229   0.35250
     Eigenvalues ---    0.35354   0.35448   0.36288   0.41390   0.42292
     Eigenvalues ---    0.43311   0.45166   0.45223   0.45722   0.46010
     Eigenvalues ---    0.46268   0.47241   0.57289
 RFO step:  Lambda=-3.93295663D-04 EMin= 1.06233313D-02
 Quartic linear search produced a step of  0.07590.
 Iteration  1 RMS(Cart)=  0.03422922 RMS(Int)=  0.00077648
 Iteration  2 RMS(Cart)=  0.00111570 RMS(Int)=  0.00006006
 Iteration  3 RMS(Cart)=  0.00000069 RMS(Int)=  0.00006006
 Variable       Old X    -DE/DX   Delta X   Delta X   Delta X     New X
                                 (Linear)    (Quad)   (Total)
    R1        2.04801  -0.00038  -0.00021  -0.00123  -0.00144   2.04657
    R2        2.04831   0.00042  -0.00010   0.00124   0.00114   2.04945
    R3        2.52635  -0.00027  -0.00037  -0.00061  -0.00098   2.52537
    R4        2.05417   0.00056  -0.00014   0.00168   0.00154   2.05571
    R5        2.78319  -0.00243   0.00047  -0.00714  -0.00667   2.77653
    R6        2.64642   0.00142   0.00020   0.00339   0.00357   2.64998
    R7        2.64859   0.00005   0.00033   0.00019   0.00050   2.64909
    R8        2.04651   0.00040  -0.00051   0.00106   0.00054   2.04705
    R9        2.62487  -0.00164  -0.00159  -0.00430  -0.00589   2.61898
   R10        2.05081  -0.00003  -0.00014  -0.00014  -0.00028   2.05053
   R11        2.64841   0.00050   0.00088   0.00144   0.00234   2.65075
   R12        2.65092  -0.00341   0.00055  -0.00783  -0.00728   2.64364
   R13        2.64591   0.00036   0.00067   0.00103   0.00172   2.64763
   R14        1.90944  -0.00042  -0.00063  -0.00119  -0.00183   1.90761
   R15        1.90939  -0.00039  -0.00065  -0.00113  -0.00177   1.90762
   R16        2.05079  -0.00014  -0.00019  -0.00047  -0.00065   2.05013
   R17        2.62636  -0.00121  -0.00154  -0.00334  -0.00488   2.62148
   R18        2.04864   0.00051  -0.00054   0.00139   0.00085   2.04949
    A1        2.03983  -0.00019  -0.00018  -0.00136  -0.00154   2.03829
    A2        2.11310   0.00009   0.00096   0.00090   0.00186   2.11496
    A3        2.13024   0.00010  -0.00077   0.00043  -0.00034   2.12990
    A4        2.06690  -0.00016  -0.00091  -0.00030  -0.00121   2.06569
    A5        2.20012   0.00113   0.00187   0.00602   0.00789   2.20800
    A6        2.01606  -0.00097  -0.00094  -0.00576  -0.00671   2.00935
    A7        2.13994   0.00028  -0.00004   0.00123   0.00119   2.14112
    A8        2.09234   0.00029   0.00118   0.00162   0.00280   2.09514
    A9        2.05088  -0.00057  -0.00113  -0.00279  -0.00396   2.04692
   A10        2.09205  -0.00072  -0.00118  -0.00485  -0.00604   2.08601
   A11        2.11738   0.00043   0.00085   0.00239   0.00323   2.12061
   A12        2.07365   0.00029   0.00032   0.00238   0.00269   2.07634
   A13        2.08416   0.00088   0.00071   0.00574   0.00643   2.09059
   A14        2.10782  -0.00030  -0.00013  -0.00138  -0.00147   2.10635
   A15        2.09116  -0.00058  -0.00058  -0.00436  -0.00496   2.08620
   A16        2.10807  -0.00020   0.00069  -0.00090  -0.00051   2.10755
   A17        2.06540   0.00016  -0.00015   0.00048   0.00011   2.06551
   A18        2.10920   0.00003   0.00065   0.00011   0.00045   2.10965
   A19        2.00445   0.00022   0.00137   0.00541   0.00668   2.01113
   A20        2.00374   0.00030   0.00133   0.00598   0.00722   2.01096
   A21        1.94353   0.00023  -0.00136   0.00644   0.00495   1.94848
   A22        2.09242  -0.00054  -0.00046  -0.00375  -0.00423   2.08819
   A23        2.10264  -0.00006  -0.00039  -0.00046  -0.00081   2.10182
   A24        2.08813   0.00059   0.00085   0.00421   0.00505   2.09317
   A25        2.12195   0.00034   0.00111   0.00190   0.00300   2.12495
   A26        2.08652  -0.00081  -0.00127  -0.00540  -0.00668   2.07983
   A27        2.07458   0.00048   0.00018   0.00363   0.00379   2.07837
    D1        0.02854  -0.00003   0.00115  -0.00042   0.00073   0.02926
    D2       -3.13001  -0.00010   0.00223  -0.00375  -0.00153  -3.13154
    D3       -3.10909   0.00014  -0.00021   0.00548   0.00528  -3.10382
    D4        0.01554   0.00007   0.00087   0.00215   0.00302   0.01857
    D5        0.44908  -0.00086  -0.00566  -0.07601  -0.08169   0.36739
    D6       -2.70052  -0.00072  -0.00475  -0.06741  -0.07214  -2.77266
    D7       -2.70904  -0.00092  -0.00461  -0.07921  -0.08384  -2.79288
    D8        0.42455  -0.00078  -0.00370  -0.07061  -0.07429   0.35026
    D9        0.03060   0.00016   0.00302   0.00925   0.01223   0.04284
   D10       -3.12617   0.00005   0.00132   0.00337   0.00469  -3.12148
   D11       -3.10316   0.00002   0.00211   0.00081   0.00291  -3.10026
   D12        0.02325  -0.00009   0.00041  -0.00507  -0.00464   0.01861
   D13        3.12118  -0.00002  -0.00169  -0.00161  -0.00331   3.11786
   D14       -0.00198  -0.00019  -0.00250  -0.01026  -0.01274  -0.01472
   D15       -0.02802   0.00012  -0.00082   0.00659   0.00575  -0.02227
   D16        3.13201  -0.00005  -0.00163  -0.00207  -0.00367   3.12833
   D17       -3.14022   0.00004   0.00354   0.00229   0.00584  -3.13438
   D18       -0.00849   0.00003   0.00289   0.00225   0.00514  -0.00335
[...]
 **** Fit       0.026996
 **** Fit       0.020240
 **** Fit       0.012227
 **** Fit       0.004783
 **** Fit      -0.000883
 **** Fit      -0.004465
 **** Fit      -0.006295
 **** Fit       0.017071
 **** Fit       0.019990
 **** Fit       0.023316
 **** Fit       0.026833
 **** Fit       0.029990
 **** Fit       0.031799
 **** Fit       0.031031
 **** Fit       0.026890
 **** Fit       0.019773
 **** Fit       0.011313
 **** Fit       0.003505
 **** Fit      -0.002318
 **** Fit      -0.005850
 **** Fit      -0.007500
 **** Fit      -0.007910
 **** Fit       0.014648
 **** Fit       0.017187
 **** Fit       0.020207
 **** Fit       0.023694
 **** Fit       0.027454
 **** Fit       0.030929
 **** Fit       0.033059
 **** Fit       0.032470
 **** Fit       0.028233
 **** Fit       0.020762
 **** Fit       0.011854
 **** Fit       0.003668
 **** Fit      -0.002393
 **** Fit      -0.006032
 **** Fit      -0.007708
 **** Fit      -0.008102
 **** Fit       0.014733
 **** Fit       0.017380
 **** Fit       0.020585
 **** Fit       0.024373
 **** Fit       0.028594
 **** Fit       0.032692
 **** Fit       0.035492
 **** Fit       0.035352
 **** Fit       0.031125
 **** Fit       0.023300
 **** Fit       0.013947
 **** Fit       0.005381
 **** Fit      -0.000994
 **** Fit      -0.004913
 **** Fit      -0.006841
 **** Fit      -0.007451
 **** Fit       0.014797
 **** Fit       0.017560
 **** Fit       0.020960
 **** Fit       0.025068
 **** Fit       0.029777
 **** Fit       0.034546
 **** Fit       0.038097
 **** Fit       0.038539
 **** Fit       0.034495
 **** Fit       0.026528
 **** Fit       0.016946
 **** Fit       0.008157
 **** Fit       0.001507
 **** Fit      -0.002769
 **** Fit      -0.005097
 **** Fit      -0.006090
 **** Fit       0.014758
 **** Fit       0.017581
 **** Fit       0.021081
 **** Fit       0.025341
 **** Fit       0.030272
 **** Fit       0.035338
 **** Fit       0.039255
 **** Fit       0.040095
 **** Fit       0.036456
 **** Fit       0.028890
 **** Fit       0.019665
 **** Fit       0.011082
 **** Fit       0.004399
 **** Fit      -0.000140
 **** Fit      -0.002865
 **** Fit      -0.004289
 **** Fit       0.014539
 **** Fit       0.017318
 **** Fit       0.020741
 **** Fit       0.024867
 **** Fit       0.029574
 **** Fit       0.034334
 **** Fit       0.037973
 **** Fit       0.038838
 **** Fit       0.035769
 **** Fit       0.029227
 **** Fit       0.021084
 **** Fit       0.013284
 **** Fit       0.006957
 **** Fit       0.002401
 **** Fit      -0.000580
 **** Fit      -0.002363
 **** Fit       0.014102
 **** Fit       0.016718
 **** Fit       0.019882
 **** Fit       0.023600
 **** Fit       0.027704
 **** Fit       0.031693
 **** Fit       0.034611
 **** Fit       0.035237
 **** Fit       0.032781
 **** Fit       0.027579
 **** Fit       0.020954
 **** Fit       0.014362
 **** Fit       0.008746
 **** Fit       0.004451
 **** Fit       0.001423
 **** Fit      -0.000572
 **** Fit       0.015817
 **** Fit       0.018595
 **** Fit       0.021745
 **** Fit       0.025076
 **** Fit       0.028150
 **** Fit       0.030260
 **** Fit       0.030601
 **** Fit       0.028697
 **** Fit       0.024775
 **** Fit       0.019681
 **** Fit       0.014409
 **** Fit       0.009685
 **** Fit       0.005856
 **** Fit       0.002973
 **** Fit       0.014703
 **** Fit       0.017045
 **** Fit       0.019599
 **** Fit       0.022175
 **** Fit       0.024425
 **** Fit       0.025862
 **** Fit       0.025987
 **** Fit       0.024533
 **** Fit       0.021644
 **** Fit       0.017838
 **** Fit       0.013757
 **** Fit       0.009926
 **** Fit       0.006652
 **** Fit       0.004041
 **** Fit       0.015401
 **** Fit       0.017414
 **** Fit       0.019353
 **** Fit       0.020961
 **** Fit       0.021913
 **** Fit       0.021909
 **** Fit       0.020799
 **** Fit       0.018678
 **** Fit       0.015856
 **** Fit       0.012740
 **** Fit       0.009696
 **** Fit       0.006971
 **** Fit       0.015351
 **** Fit       0.016796
 **** Fit       0.017938
 **** Fit       0.018564
 **** Fit       0.018494
 **** Fit       0.017644
 **** Fit       0.016072
 **** Fit       0.013969
 **** Fit       0.011592
 **** Fit       0.009191
 **** Fit       0.015380
 **** Fit       0.015795
 **** Fit       0.015698
 **** Fit       0.015040
 **** Fit       0.013858
 **** Fit       0.012272
 **** Fit       0.015383
 **** Fit       0.015584
 **** Fit       0.015273
 **** Fit       0.014419
 **** Fit       0.013080
 **** Fit       0.011390
 **** Fit       0.015291
 **** Fit       0.016448
 **** Fit       0.017272
 **** Fit       0.017580
 **** Fit       0.017228
 **** Fit       0.016165
 **** Fit       0.014475
 **** Fit       0.012350
 **** Fit       0.010039
 **** Fit       0.016699
 **** Fit       0.018136
 **** Fit       0.019200
 **** Fit       0.019637
 **** Fit       0.019236
 **** Fit       0.017919
 **** Fit       0.015798
 **** Fit       0.013153
 **** Fit       0.010329
 **** Fit       0.007634
 **** Fit       0.016119
 **** Fit       0.017978
 **** Fit       0.019700
 **** Fit       0.021014
 **** Fit       0.021586
 **** Fit       0.021123
 **** Fit       0.019505
 **** Fit       0.016886
 **** Fit       0.013652
 **** Fit       0.010273
 **** Fit       0.007143
 **** Fit       0.004501
 **** Fit       0.016939
 **** Fit       0.019024
 **** Fit       0.020993
 **** Fit       0.022526
 **** Fit       0.023208
 **** Fit       0.022654
 **** Fit       0.020702
 **** Fit       0.017551
 **** Fit       0.013709
 **** Fit       0.009781
 **** Fit       0.006253
 **** Fit       0.003391
 **** Fit       0.015388
 **** Fit       0.017523
 **** Fit       0.019766
 **** Fit       0.021906
 **** Fit       0.023584
 **** Fit       0.024315
 **** Fit       0.023636
 **** Fit       0.021344
 **** Fit       0.017681
 **** Fit       0.013273
 **** Fit       0.008860
 **** Fit       0.005014
 **** Fit       0.002018
 **** Fit      -0.000105
 **** Fit       0.015680
 **** Fit       0.017889
 **** Fit       0.020217
 **** Fit       0.022444
 **** Fit       0.024180
 **** Fit       0.024894
 **** Fit       0.024066
 **** Fit       0.021464
 **** Fit       0.017362
 **** Fit       0.012484
 **** Fit       0.007685
 **** Fit       0.003613
 **** Fit       0.000564
 **** Fit      -0.001478
 **** Fit       0.015859
 **** Fit       0.018111
 **** Fit       0.020486
 **** Fit       0.022753
 **** Fit       0.024507
 **** Fit       0.025184
 **** Fit       0.024227
 **** Fit       0.021382
 **** Fit       0.016939
 **** Fit       0.011695
 **** Fit       0.006599
 **** Fit       0.002370
 **** Fit      -0.000691
 **** Fit      -0.002637
 **** Fit       0.018294
 **** Fit       0.020730
 **** Fit       0.023067
 **** Fit       0.024883
 **** Fit       0.025585
 **** Fit       0.024578
 **** Fit       0.021577
 **** Fit       0.016884
 **** Fit       0.011352
 **** Fit       0.006015
 **** Fit       0.001645
 **** Fit      -0.001447
 **** Fit       0.016127
 **** Fit       0.018510
 **** Fit       0.021066
 **** Fit       0.023558
 **** Fit       0.025551
 **** Fit       0.026409
 **** Fit       0.025473
 **** Fit       0.022413
 **** Fit       0.017544
 **** Fit       0.011781
 **** Fit       0.006229
 **** Fit       0.001703
 **** Fit      -0.001482
 **** Fit      -0.003422
 **** Fit       0.016256
 **** Fit       0.018754
 **** Fit       0.021479
 **** Fit       0.024207
 **** Fit       0.026486
 **** Fit       0.027626
 **** Fit       0.026886
 **** Fit       0.023874
 **** Fit       0.018918
 **** Fit       0.013000
 **** Fit       0.007279
 **** Fit       0.002588
 **** Fit      -0.000754
 **** Fit      -0.002839
 **** Fit       0.016324
 **** Fit       0.018926
 **** Fit       0.021812
 **** Fit       0.024767
 **** Fit       0.027336
 **** Fit       0.028788
 **** Fit       0.028313
 **** Fit       0.025466
 **** Fit       0.020575
 **** Fit       0.014658
 **** Fit       0.008886
 **** Fit       0.004085
 **** Fit       0.000575
 **** Fit      -0.001712
 **** Fit       0.016244
 **** Fit       0.018884
 **** Fit       0.021835
 **** Fit       0.024889
 **** Fit       0.027599
 **** Fit       0.029241
 **** Fit       0.029002
 **** Fit       0.026431
 **** Fit       0.021831
 **** Fit       0.016174
 **** Fit       0.010570
 **** Fit       0.005804
 **** Fit       0.002200
 **** Fit      -0.000272
 **** Fit       0.015939
 **** Fit       0.018513
 **** Fit       0.021374
 **** Fit       0.024321
 **** Fit       0.026931
 **** Fit       0.028545
 **** Fit       0.028441
 **** Fit       0.026221
 **** Fit       0.022142
 **** Fit       0.017036
 **** Fit       0.011868
 **** Fit       0.007344
 **** Fit       0.003788
 **** Fit       0.001220
 **** Fit       0.015382
 **** Fit       0.017777
 **** Fit       0.020396
 **** Fit       0.023042
 **** Fit       0.025339
 **** Fit       0.026738
 **** Fit       0.026666
 **** Fit       0.024821
 **** Fit       0.021401
 **** Fit       0.017049
 **** Fit       0.012531
 **** Fit       0.008442
 **** Fit       0.005094
 **** Fit       0.002551
 **** Fit       0.016729
 **** Fit       0.019005
 **** Fit       0.021240
 **** Fit       0.023118
 **** Fit       0.024216
 **** Fit       0.024121
 **** Fit       0.022628
 **** Fit       0.019880
 **** Fit       0.016335
 **** Fit       0.012559
 **** Fit       0.009021
 **** Fit       0.006002
 **** Fit       0.015473
 **** Fit       0.017372
 **** Fit       0.019176
 **** Fit       0.020633
 **** Fit       0.021438
 **** Fit       0.021310
 **** Fit       0.020119
 **** Fit       0.017968
 **** Fit       0.015164
 **** Fit       0.012104
 **** Fit       0.009141
 **** Fit       0.006512
 **** Fit       0.015663
 **** Fit       0.017076
 **** Fit       0.018171
 **** Fit       0.018735
 **** Fit       0.018586
 **** Fit       0.017643
 **** Fit       0.015977
 **** Fit       0.013791
 **** Fit       0.011355
 **** Fit       0.008926
 **** Fit       0.015898
 **** Fit       0.016284
 **** Fit       0.016128
 **** Fit       0.015381
 **** Fit       0.014092
 **** Fit       0.012393
 **** Fit       0.014878
 **** Fit       0.014987
 **** Fit       0.014613
 **** Fit       0.013733
 **** Fit       0.012407
 **** Fit       0.015630
 **** Fit       0.016266
 **** Fit       0.016423
 **** Fit       0.015986
 **** Fit       0.014925
 **** Fit       0.013318
 **** Fit       0.011338
 **** Fit       0.009201
 **** Fit       0.015666
 **** Fit       0.016790
 **** Fit       0.017548
 **** Fit       0.017746
 **** Fit       0.017235
 **** Fit       0.015968
 **** Fit       0.014048
 **** Fit       0.011703
 **** Fit       0.009211
 **** Fit       0.006829
 **** Fit       0.016505
 **** Fit       0.017767
 **** Fit       0.018627
 **** Fit       0.018849
 **** Fit       0.018246
 **** Fit       0.016758
 **** Fit       0.014514
 **** Fit       0.011799
 **** Fit       0.008962
 **** Fit       0.006310
 **** Fit       0.015589
 **** Fit       0.017150
 **** Fit       0.018512
 **** Fit       0.019440
 **** Fit       0.019661
 **** Fit       0.018952
 **** Fit       0.017243
 **** Fit       0.014687
 **** Fit       0.011628
 **** Fit       0.008482
 **** Fit       0.005604
 **** Fit       0.015976
 **** Fit       0.017610
 **** Fit       0.019037
 **** Fit       0.020001
 **** Fit       0.020200
 **** Fit       0.019383
 **** Fit       0.017473
 **** Fit       0.014644
 **** Fit       0.011290
 **** Fit       0.007887
 **** Fit       0.004833
 **** Fit       0.002358
 **** Fit       0.016253
 **** Fit       0.017941
 **** Fit       0.019417
 **** Fit       0.020407
 **** Fit       0.020587
 **** Fit       0.019685
 **** Fit       0.017615
 **** Fit       0.014567
 **** Fit       0.010976
 **** Fit       0.007368
 **** Fit       0.004179
 **** Fit       0.018219
 **** Fit       0.019758
 **** Fit       0.020798
 **** Fit       0.020996
 **** Fit       0.020058
 **** Fit       0.017886
 **** Fit       0.014679
 **** Fit       0.010908
 **** Fit       0.007139
 **** Fit       0.003837
 **** Fit       0.016662
 **** Fit       0.018492
 **** Fit       0.020127
 **** Fit       0.021267
 **** Fit       0.021545
 **** Fit       0.020638
 **** Fit       0.018432
 **** Fit       0.015133
 **** Fit       0.011237
 **** Fit       0.007343
 **** Fit       0.003940
 **** Fit       0.001284
 **** Fit       0.016815
 **** Fit       0.018741
 **** Fit       0.020500
 **** Fit       0.021781
 **** Fit       0.022193
 **** Fit       0.021385
 **** Fit       0.019220
 **** Fit       0.015906
 **** Fit       0.011955
 **** Fit       0.007987
 **** Fit       0.004500
 **** Fit       0.001759
 **** Fit       0.016872
 **** Fit       0.018879
 **** Fit       0.020750
 **** Fit       0.022168
 **** Fit       0.022731
 **** Fit       0.022064
 **** Fit       0.020014
 **** Fit       0.016782
 **** Fit       0.012877
 **** Fit       0.008916
 **** Fit       0.005396
 **** Fit       0.002584
 **** Fit       0.016753
 **** Fit       0.018786
 **** Fit       0.020703
 **** Fit       0.022196
 **** Fit       0.022867
 **** Fit       0.022347
 **** Fit       0.020477
 **** Fit       0.017437
 **** Fit       0.013711
 **** Fit       0.009879
 **** Fit       0.006415
 **** Fit       0.003584
 **** Fit       0.016395
 **** Fit       0.018370
 **** Fit       0.020233
 **** Fit       0.021696
 **** Fit       0.022396
 **** Fit       0.021994
 **** Fit       0.020346
 **** Fit       0.017605
 **** Fit       0.014193
 **** Fit       0.010626
 **** Fit       0.007333
 **** Fit       0.004569
 **** Fit       0.015778
 **** Fit       0.017610
 **** Fit       0.019320
 **** Fit       0.020653
 **** Fit       0.021299
 **** Fit       0.020977
 **** Fit       0.019566
 **** Fit       0.017193
 **** Fit       0.014198
 **** Fit       0.011008
 **** Fit       0.007993
 **** Fit       0.005388
 **** Fit       0.016560
 **** Fit       0.018050
 **** Fit       0.019190
 **** Fit       0.019730
 **** Fit       0.019455
 **** Fit       0.018275
 **** Fit       0.016287
 **** Fit       0.013750
 **** Fit       0.010999
 **** Fit       0.008333
 **** Fit       0.015319
 **** Fit       0.016564
 **** Fit       0.017491
 **** Fit       0.017910
 **** Fit       0.017664
 **** Fit       0.016692
 **** Fit       0.015065
 **** Fit       0.012973
 **** Fit       0.010664
 **** Fit       0.008372
 **** Fit       0.015729
 **** Fit       0.016036
 **** Fit       0.015812
 **** Fit       0.015018
 **** Fit       0.013706
 **** Fit       0.012008
 **** Fit       0.014877
 **** Fit       0.014887
 **** Fit       0.014398
 **** Fit       0.013396
 **** Fit       0.011951
 **** Fit       0.010203
 **** Fit       0.015683
 **** Fit       0.015688
 **** Fit       0.015123
 **** Fit       0.013972
 **** Fit       0.012319
 **** Fit       0.010336
 **** Fit       0.015814
 **** Fit       0.016325
 **** Fit       0.016315
 **** Fit       0.015670
 **** Fit       0.014373
 **** Fit       0.012522
 **** Fit       0.010319
 **** Fit       0.008012
 **** Fit       0.016283
 **** Fit       0.016815
 **** Fit       0.016784
 **** Fit       0.016065
 **** Fit       0.014636
 **** Fit       0.012611
 **** Fit       0.010218
 **** Fit       0.007737
 **** Fit       0.016648
 **** Fit       0.017200
 **** Fit       0.017157
 **** Fit       0.016381
 **** Fit       0.014849
 **** Fit       0.012683
 **** Fit       0.010136
 **** Fit       0.007514
 **** Fit       0.016954
 **** Fit       0.017541
 **** Fit       0.017508
 **** Fit       0.016707
 **** Fit       0.015109
 **** Fit       0.012845
 **** Fit       0.010185
 **** Fit       0.007455
 **** Fit       0.017226
 **** Fit       0.017871
 **** Fit       0.017880
 **** Fit       0.017094
 **** Fit       0.015477
 **** Fit       0.013162
 **** Fit       0.010432
 **** Fit       0.007627
 **** Fit       0.016308
 **** Fit       0.017444
 **** Fit       0.018163
 **** Fit       0.018243
 **** Fit       0.017511
 **** Fit       0.015923
 **** Fit       0.013612
 **** Fit       0.010864
 **** Fit       0.008028
 **** Fit       0.005409
 **** Fit       0.016346
 **** Fit       0.017540
 **** Fit       0.018330
 **** Fit       0.018491
 **** Fit       0.017842
 **** Fit       0.016331
 **** Fit       0.014085
 **** Fit       0.011383
 **** Fit       0.008570
 **** Fit       0.005950
 **** Fit       0.016208
 **** Fit       0.017426
 **** Fit       0.018260
 **** Fit       0.018488
 **** Fit       0.017933
 **** Fit       0.016539
 **** Fit       0.014420
 **** Fit       0.011838
 **** Fit       0.009120
 **** Fit       0.006555
 **** Fit       0.015847
 **** Fit       0.017038
 **** Fit       0.017868
 **** Fit       0.018132
 **** Fit       0.017666
 **** Fit       0.016415
 **** Fit       0.014478
 **** Fit       0.012090
 **** Fit       0.009541
 **** Fit       0.007097
 **** Fit       0.015250
 **** Fit       0.016362
 **** Fit       0.017139
 **** Fit       0.017403
 **** Fit       0.017011
 **** Fit       0.015915
 **** Fit       0.014200
 **** Fit       0.012059
 **** Fit       0.009743
 **** Fit       0.015441
 **** Fit       0.016129
 **** Fit       0.016363
 **** Fit       0.016029
 **** Fit       0.015089
 **** Fit       0.013609
 **** Fit       0.011746
 **** Fit       0.009701
 **** Fit       0.014932
 **** Fit       0.015122
 **** Fit       0.014833
 **** Fit       0.014038
 **** Fit       0.012788
 **** Fit       0.011202
 **** Fit       0.015063
 **** Fit       0.014406
 **** Fit       0.013195
 **** Fit       0.011520
 **** Fit       0.015344
 **** Fit       0.015273
 **** Fit       0.014648
 **** Fit       0.013459
 **** Fit       0.011791
 **** Fit       0.009813
 **** Fit       0.015406
 **** Fit       0.015382
 **** Fit       0.014808
 **** Fit       0.013670
 **** Fit       0.012048
 **** Fit       0.010108
 **** Fit       0.015300
 **** Fit       0.015321
 **** Fit       0.014809
 **** Fit       0.013748
 **** Fit       0.012211
 **** Fit       0.010352
 **** Fit       0.014986
 **** Fit       0.015038
 **** Fit       0.014590
 **** Fit       0.013623
 **** Fit       0.012204
 **** Fit       0.010469
 **** Fit       0.014519
 **** Fit       0.014131
 **** Fit       0.013269
 **** Fit       0.011989
 -----------------------------------------------------------------
 Leave Link  602 at Thu Apr 21 16:34:00 2022, MaxMem=   104857600 cpu:               1.1 elap:               1.2
 (Enter /opt/ohpc/pub/libs/gaussian/g16-A.03/haswell/g16/l9999.exe)

 Test job not archived.
 1\1\GINC-CASCADEB015\SP\RB3LYP\6-311++G(d,p)\C8H9N1\MNG228\21-Apr-2022
 \0\\#P B3LYP/6-311++G(d,p) Geom=Allcheck SCF=Tight EmpiricalDispersion
 =GD3BJ Pop=CHELPG SP IOp(6/33=2)\\4AS geo opt\\0,1\H,0,0.9327417041,-0
 .3726006686,0.4260694155\C,0,2.0051478953,-0.3003965242,0.5577571335\H
 ,0,2.354261186,0.4058436438,1.3026888342\C,0,2.8378103729,-1.051717405
 6,-0.1712652664\H,0,2.4021271106,-1.7344338262,-0.8978767407\C,0,4.302
 4285418,-1.0766681229,-0.1191967455\C,0,5.0590790072,-0.2750841367,0.7
 51042927\H,0,4.5580478005,0.4056412009,1.4288725453\C,0,6.4422420084,-
 0.3309094649,0.7688031382\H,0,6.999238856,0.3053709717,1.448957218\C,0
 ,7.1380677168,-1.1995506815,-0.0885629738\N,0,8.5316669535,-1.21505866
 08,-0.1065742113\H,0,8.9585763101,-2.0491489985,-0.480710604\H,0,8.987
 2487639,-0.8903728728,0.7330418266\C,0,6.3957505661,-2.0033028684,-0.9
 625157457\H,0,6.9101781433,-2.6778806663,-1.6389655225\C,0,5.009023820
 5,-1.9374190333,-0.9708402213\H,0,4.455863243,-2.5716118856,-1.6558250
 07\\Version=ES64L-G16RevA.03\State=1-A\HF=-365.139502\RMSD=6.902e-09\D
 ipole=0.7779848,-0.3345442,0.2282137\Quadrupole=3.954161,-2.0134221,-1
 .9407388,-2.2068122,2.5209797,4.7181588\PG=C01 [X(C8H9N1)]\\@


 ACHIEVEMENT--  THE MAN WHO ROWS THE BOAT GENERALLY 
                DOESN'T HAVE TIME TO ROCK IT.

                   -- FROM THE BACK OF A SUGAR PACKET
 Job cpu time:       0 days  0 hours  2 minutes 22.1 seconds.
 Elapsed time:       0 days  0 hours  2 minutes 23.1 seconds.
 File lengths (MBytes):  RWF=    272 Int=      0 D2E=      0 Chk=     32 Scr=     32
 Normal termination of Gaussian 16 at Thu Apr 21 16:34:00 2022.
