 Entering Gaussian System, Link 0=g16
 Initial command:
 /opt/ohpc/pub/libs/gaussian/g16-A.03/haswell/g16/l1.exe "g16_scratch/Gau-139208.inp" -scrdir="g16_scratch/"
 Entering Link 1 = /opt/ohpc/pub/libs/gaussian/g16-A.03/haswell/g16/l1.exe PID=    139209.
  
 Copyright (c) 1988,1990,1992,1993,1995,1998,2003,2009,2016,
            Gaussian, Inc.  All Rights Reserved.
  
 This is part of the Gaussian(R) 16 program.  It is based on
 the Gaussian(R) 09 system (copyright 2009, Gaussian, Inc.),
 the Gaussian(R) 03 system (copyright 2003, Gaussian, Inc.),
 the Gaussian(R) 98 system (copyright 1998, Gaussian, Inc.),
 the Gaussian(R) 94 system (copyright 1995, Gaussian, Inc.),
 the Gaussian 92(TM) system (copyright 1992, Gaussian, Inc.),
 the Gaussian 90(TM) system (copyright 1990, Gaussian, Inc.),
 the Gaussian 88(TM) system (copyright 1988, Gaussian, Inc.),
 the Gaussian 86(TM) system (copyright 1986, Carnegie Mellon
 University), and the Gaussian 82(TM) system (copyright 1983,
 Carnegie Mellon University). Gaussian is a federally registered
 trademark of Gaussian, Inc.
  
 This software contains proprietary and confidential information,
 including trade secrets, belonging to Gaussian, Inc.
  
 This software is provided under written license and may be
 used, copied, transmitted, or stored only in accord with that
 written license.
  
 The following legend is applicable only to US Government
 contracts under FAR:
  
                    RESTRICTED RIGHTS LEGEND
  
 Use, reproduction and disclosure by the US Government is
 subject to restrictions as set forth in subparagraphs (a)
 and (c) of the Commercial Computer Software - Restricted
 Rights clause in FAR 52.227-19.
  
 Gaussian, Inc.
 340 Quinnipiac St., Bldg. 40, Wallingford CT 06492
  
  
 ---------------------------------------------------------------
 Warning -- This program may not be used in any manner that
 competes with the business of Gaussian, Inc. or will provide
 assistance to any competitor of Gaussian, Inc.  The licensee
 of this program is prohibited from giving any competitor of
 Gaussian, Inc. access to this program.  By using this program,
 the user acknowledges that Gaussian, Inc. is engaged in the
 business of creating and licensing software in the field of
 computational chemistry and represents and warrants to the
 licensee that it is not a competitor of Gaussian, Inc. and that
 it will not use this program in any manner prohibited above.
 ---------------------------------------------------------------
  

 Cite this work as:
 Gaussian 16, Revision A.03,
 M. J. Frisch, G. W. Trucks, H. B. Schlegel, G. E. Scuseria, 
 M. A. Robb, J. R. Cheeseman, G. Scalmani, V. Barone, 
 G. A. Petersson, H. Nakatsuji, X. Li, M. Caricato, A. V. Marenich, 
 J. Bloino, B. G. Janesko, R. Gomperts, B. Mennucci, H. P. Hratchian, 
 J. V. Ortiz, A. F. Izmaylov, J. L. Sonnenberg, D. Williams-Young, 
 F. Ding, F. Lipparini, F. Egidi, J. Goings, B. Peng, A. Petrone, 
 T. Henderson, D. Ranasinghe, V. G. Zakrzewski, J. Gao, N. Rega, 
 G. Zheng, W. Liang, M. Hada, M. Ehara, K. Toyota, R. Fukuda, 
 J. Hasegawa, M. Ishida, T. Nakajima, Y. Honda, O. Kitao, H. Nakai, 
 T. Vreven, K. Throssell, J. A. Montgomery, Jr., J. E. Peralta, 
 F. Ogliaro, M. J. Bearpark, J. J. Heyd, E. N. Brothers, K. N. Kudin, 
 V. N. Staroverov, T. A. Keith, R. Kobayashi, J. Normand, 
 K. Raghavachari, A. P. Rendell, J. C. Burant, S. S. Iyengar, 
 J. Tomasi, M. Cossi, J. M. Millam, M. Klene, C. Adamo, R. Cammi, 
 J. W. Ochterski, R. L. Martin, K. Morokuma, O. Farkas, 
 J. B. Foresman, and D. J. Fox, Gaussian, Inc., Wallingford CT, 2016.
 
 ******************************************
 Gaussian 16:  ES64L-G16RevA.03 25-Dec-2016
                21-Apr-2022 
 ******************************************
 %Mem=192GB
 %NProcShared=48
 Will use up to   48 processors via shared memory.
 %Chk=4AS-2.chk
 ---------------------------------------------------------------------
 #n B3LYP/6-311++G(d,p) Opt freq EmpiricalDispersion=GD3BJ IOp(6/33=2)
 ---------------------------------------------------------------------
 1/18=20,19=15,26=3,38=1/1,3;
 2/9=110,12=2,17=6,18=5,40=1/2;
 3/5=4,6=6,7=1111,11=2,25=1,30=1,71=1,74=-5,124=41/1,2,3;
 4//1;
 5/5=2,38=5/2;
 6/7=2,8=2,9=2,10=2,28=1,33=2/1;
 7//1,2,3,16;
 1/18=20,19=15,26=3/3(2);
 2/9=110/2;
 99//99;
 2/9=110/2;
 3/5=4,6=6,7=1111,11=2,25=1,30=1,71=1,74=-5,124=41/1,2,3;
 4/5=5,16=3,69=1/1;
 5/5=2,38=5/2;
 7//1,2,3,16;
 1/18=20,19=15,26=3/3(-5);
 2/9=110/2;
 6/7=2,8=2,9=2,10=2,19=2,28=1,33=2/1;
 99/9=1/99;
 -----------
 4AS geo opt
 -----------
 Symbolic Z-matrix:
 Charge =  0 Multiplicity = 1
 H                     0.9784   -0.4086   -0.6916 
 C                     2.0596   -0.3209   -0.7234 
 H                     2.4718    0.4683   -1.3429 
 C                     2.8285   -1.1774   -0.0383 
 H                     2.3548   -1.9684    0.5393 
 C                     4.2979   -1.159    -0.0311 
 C                     5.0387   -0.4212    0.8985 
 H                     4.5408    0.18      1.6543 
 C                     6.4384   -0.4352    0.8691 
 H                     6.9842    0.1816    1.5773 
 C                     7.1272   -1.2268   -0.0506 
 N                     8.5178   -1.126    -0.1656 
 H                     8.9514   -1.9283   -0.6108 
 H                     8.9824   -0.8655    0.6983 
 C                     6.3907   -1.9375   -0.9992 
 H                     6.8992   -2.506    -1.773 
 C                     4.9904   -1.9262   -0.9744 
 H                     4.4495   -2.5046   -1.7203 
 

 GradGradGradGradGradGradGradGradGradGradGradGradGradGradGradGradGradGrad
 Berny optimization.
 Initialization pass.
                           ----------------------------
                           !    Initial Parameters    !
                           ! (Angstroms and Degrees)  !
 --------------------------                            --------------------------
 ! Name  Definition              Value          Derivative Info.                !
 --------------------------------------------------------------------------------
 ! R1    R(1,2)                  1.0852         estimate D2E/DX2                !
 ! R2    R(2,3)                  1.0847         estimate D2E/DX2                !
 ! R3    R(2,4)                  1.3395         estimate D2E/DX2                !
 ! R4    R(4,5)                  1.088          estimate D2E/DX2                !
 ! R5    R(4,6)                  1.4695         estimate D2E/DX2                !
 ! R6    R(6,7)                  1.399          estimate D2E/DX2                !
 ! R7    R(6,17)                 1.3993         estimate D2E/DX2                !
 ! R8    R(7,8)                  1.0865         estimate D2E/DX2                !
 ! R9    R(7,9)                  1.4001         estimate D2E/DX2                !
 ! R10   R(9,10)                 1.0862         estimate D2E/DX2                !
 ! R11   R(9,11)                 1.3953         estimate D2E/DX2                !
 ! R12   R(11,12)                1.399          estimate D2E/DX2                !
 ! R13   R(11,15)                1.3955         estimate D2E/DX2                !
 ! R14   R(12,13)                1.0148         estimate D2E/DX2                !
 ! R15   R(12,14)                1.0149         estimate D2E/DX2                !
 ! R16   R(15,16)                1.0865         estimate D2E/DX2                !
 ! R17   R(15,17)                1.4006         estimate D2E/DX2                !
 ! R18   R(17,18)                1.0879         estimate D2E/DX2                !
 ! A1    A(1,2,3)              117.0102         estimate D2E/DX2                !
 ! A2    A(1,2,4)              120.3479         estimate D2E/DX2                !
 ! A3    A(3,2,4)              122.6307         estimate D2E/DX2                !
 ! A4    A(2,4,5)              119.1107         estimate D2E/DX2                !
 ! A5    A(2,4,6)              124.6446         estimate D2E/DX2                !
 ! A6    A(5,4,6)              116.2225         estimate D2E/DX2                !
 ! A7    A(4,6,7)              122.6374         estimate D2E/DX2                !
 ! A8    A(4,6,17)             118.992          estimate D2E/DX2                !
 ! A9    A(7,6,17)             118.3612         estimate D2E/DX2                !
 ! A10   A(6,7,8)              120.754          estimate D2E/DX2                !
 ! A11   A(6,7,9)              120.6731         estimate D2E/DX2                !
 ! A12   A(8,7,9)              118.5716         estimate D2E/DX2                !
 ! A13   A(7,9,10)             118.8795         estimate D2E/DX2                !
 ! A14   A(7,9,11)             120.8659         estimate D2E/DX2                !
 ! A15   A(10,9,11)            120.2546         estimate D2E/DX2                !
 ! A16   A(9,11,12)            120.2648         estimate D2E/DX2                !
 ! A17   A(9,11,15)            118.4537         estimate D2E/DX2                !
 ! A18   A(12,11,15)           120.3598         estimate D2E/DX2                !
 ! A19   A(11,12,13)           113.8159         estimate D2E/DX2                !
 ! A20   A(11,12,14)           113.8006         estimate D2E/DX2                !
 ! A21   A(13,12,14)           112.38           estimate D2E/DX2                !
 ! A22   A(11,15,16)           120.2376         estimate D2E/DX2                !
 ! A23   A(11,15,17)           120.7657         estimate D2E/DX2                !
 ! A24   A(16,15,17)           118.9961         estimate D2E/DX2                !
 ! A25   A(6,17,15)            120.7416         estimate D2E/DX2                !
 ! A26   A(6,17,18)            120.5081         estimate D2E/DX2                !
 ! A27   A(15,17,18)           118.7298         estimate D2E/DX2                !
 ! D1    D(1,2,4,5)              0.7623         estimate D2E/DX2                !
 ! D2    D(1,2,4,6)            178.9787         estimate D2E/DX2                !
 ! D3    D(3,2,4,5)           -177.9816         estimate D2E/DX2                !
 ! D4    D(3,2,4,6)              0.2348         estimate D2E/DX2                !
 ! D5    D(2,4,6,7)             90.0            estimate D2E/DX2                !
 ! D6    D(2,4,6,17)           -91.1421         estimate D2E/DX2                !
 ! D7    D(5,4,6,7)            -91.7371         estimate D2E/DX2                !
 ! D8    D(5,4,6,17)            87.1207         estimate D2E/DX2                !
 ! D9    D(4,6,7,8)             -0.5245         estimate D2E/DX2                !
 ! D10   D(4,6,7,9)            179.8878         estimate D2E/DX2                !
 ! D11   D(17,6,7,8)          -179.3892         estimate D2E/DX2                !
 ! D12   D(17,6,7,9)             1.0231         estimate D2E/DX2                !
 ! D13   D(4,6,17,15)         -179.8937         estimate D2E/DX2                !
 ! D14   D(4,6,17,18)            1.7738         estimate D2E/DX2                !
 ! D15   D(7,6,17,15)           -0.9868         estimate D2E/DX2                !
 ! D16   D(7,6,17,18)         -179.3193         estimate D2E/DX2                !
 ! D17   D(6,7,9,10)           177.4049         estimate D2E/DX2                !
 ! D18   D(6,7,9,11)            -2.6674         estimate D2E/DX2                !
 ! D19   D(8,7,9,10)            -2.1916         estimate D2E/DX2                !
 ! D20   D(8,7,9,11)           177.736          estimate D2E/DX2                !
 ! D21   D(7,9,11,12)          173.2096         estimate D2E/DX2                !
 ! D22   D(7,9,11,15)            4.155          estimate D2E/DX2                !
 ! D23   D(10,9,11,12)          -6.8638         estimate D2E/DX2                !
 ! D24   D(10,9,11,15)        -175.9184         estimate D2E/DX2                !
 ! D25   D(9,11,12,13)         160.55           estimate D2E/DX2                !
 ! D26   D(9,11,12,14)          30.0424         estimate D2E/DX2                !
 ! D27   D(15,11,12,13)        -30.6052         estimate D2E/DX2                !
 ! D28   D(15,11,12,14)       -161.1128         estimate D2E/DX2                !
 ! D29   D(9,11,15,16)         175.615          estimate D2E/DX2                !
 ! D30   D(9,11,15,17)          -4.1134         estimate D2E/DX2                !
 ! D31   D(12,11,15,16)          6.5711         estimate D2E/DX2                !
 ! D32   D(12,11,15,17)       -173.1573         estimate D2E/DX2                !
 ! D33   D(11,15,17,6)           2.59           estimate D2E/DX2                !
 ! D34   D(11,15,17,18)       -179.0483         estimate D2E/DX2                !
 ! D35   D(16,15,17,6)        -177.1417         estimate D2E/DX2                !
 ! D36   D(16,15,17,18)          1.22           estimate D2E/DX2                !
 --------------------------------------------------------------------------------
 Trust Radius=3.00D-01 FncErr=1.00D-07 GrdErr=1.00D-06 EigMax=2.50D+02 EigMin=1.00D-04
 Number of steps in this run=     91 maximum allowed number of steps=    108.
 GradGradGradGradGradGradGradGradGradGradGradGradGradGradGradGradGradGrad

                          Input orientation:                          
 ---------------------------------------------------------------------
 Center     Atomic      Atomic             Coordinates (Angstroms)
 Number     Number       Type             X           Y           Z
 ---------------------------------------------------------------------
      1          1           0        0.978400   -0.408600   -0.691600
      2          6           0        2.059600   -0.320900   -0.723400
      3          1           0        2.471800    0.468300   -1.342900
      4          6           0        2.828500   -1.177400   -0.038300
      5          1           0        2.354800   -1.968400    0.539300
      6          6           0        4.297900   -1.159000   -0.031100
      7          6           0        5.038700   -0.421200    0.898500
      8          1           0        4.540800    0.180000    1.654300
      9          6           0        6.438400   -0.435200    0.869100
     10          1           0        6.984200    0.181600    1.577300
     11          6           0        7.127200   -1.226800   -0.050600
     12          7           0        8.517800   -1.126000   -0.165600
     13          1           0        8.951400   -1.928300   -0.610800
     14          1           0        8.982400   -0.865500    0.698300
     15          6           0        6.390700   -1.937500   -0.999200
     16          1           0        6.899200   -2.506000   -1.773000
     17          6           0        4.990400   -1.926200   -0.974400
     18          1           0        4.449500   -2.504600   -1.720300
 ---------------------------------------------------------------------
                    Distance matrix (angstroms):
                    1          2          3          4          5
     1  H    0.000000
     2  C    1.085217   0.000000
     3  H    1.850240   1.084678   0.000000
     4  C    2.107303   1.339463   2.130151   0.000000
     5  H    2.417140   2.096619   3.081213   1.087977   0.000000
     6  C    3.466762   2.488308   2.775530   1.469533   2.180854
     7  C    4.360575   3.393473   3.521940   2.516827   3.118681
     8  H    4.305855   3.472854   3.653366   2.763947   3.261509
     9  C    5.678740   4.660795   4.630677   3.795473   4.374387
    10  H    6.447160   5.458701   5.382520   4.661211   5.208770
    11  C    6.236030   5.191713   5.120171   4.299001   4.865568
    12  N    7.591699   6.532050   6.362542   5.690956   6.260119
    13  H    8.116942   7.077664   6.947293   6.195281   6.696228
    14  H    8.136621   7.088228   6.952225   6.205671   6.720621
    15  C    5.632508   4.631187   4.611267   3.767008   4.319308
    16  H    6.373726   5.412767   5.351011   4.620061   5.127116
    17  C    4.298747   3.351056   3.494677   2.472002   3.039647
    18  H    4.183297   3.387326   3.590524   2.686675   3.127470
                    6          7          8          9         10
     6  C    0.000000
     7  C    1.399032   0.000000
     8  H    2.166217   1.086545   0.000000
     9  C    2.432280   1.400079   2.143804   0.000000
    10  H    3.405931   2.146883   2.444613   1.086226   0.000000
    11  C    2.830179   2.431381   3.402240   1.395322   2.157336
    12  N    4.222172   3.705832   4.564450   2.423162   2.664479
    13  H    4.752151   4.456294   5.387857   3.276373   3.620682
    14  H    4.750022   3.973695   4.662061   2.585782   2.421128
    15  C    2.433740   2.779988   3.866135   2.397859   3.388389
    16  H    3.408135   3.865846   4.952073   3.388398   4.295920
    17  C    1.399274   2.403146   3.398276   2.778179   3.863836
    18  H    2.164952   3.397915   4.313159   3.865635   4.951216
                   11         12         13         14         15
    11  C    0.000000
    12  N    1.398983   0.000000
    13  H    2.033134   1.014839   0.000000
    14  H    2.033016   1.014907   1.686490   0.000000
    15  C    1.395482   2.424454   2.590005   3.278353   0.000000
    16  H    2.157545   2.666083   2.428162   3.624677   1.086522
    17  C    2.430737   3.706350   3.977654   4.456352   1.400565
    18  H    3.404519   4.568227   4.672282   5.392908   2.147055
                   16         17         18
    16  H    0.000000
    17  C    2.148825   0.000000
    18  H    2.450267   1.087882   0.000000
 Stoichiometry    C8H9N
 Framework group  C1[X(C8H9N)]
 Deg. of freedom    48
 Full point group                 C1      NOp   1
 Largest Abelian subgroup         C1      NOp   1
 Largest concise Abelian subgroup C1      NOp   1
                         Standard orientation:                         
 ---------------------------------------------------------------------
 Center     Atomic      Atomic             Coordinates (Angstroms)
 Number     Number       Type             X           Y           Z
 ---------------------------------------------------------------------
      1          1           0        4.419194   -0.044761    0.414330
      2          6           0        3.352957   -0.006364    0.612725
      3          1           0        3.045602    0.006978    1.652860
      4          6           0        2.475944   -0.001469   -0.399690
      5          1           0        2.846751   -0.049107   -1.421418
      6          6           0        1.015431    0.027025   -0.239643
      7          6           0        0.287093    1.219512   -0.170447
      8          1           0        0.789438    2.181375   -0.225652
      9          6           0       -1.104709    1.198646   -0.019869
     10          1           0       -1.636483    2.141198    0.073396
     11          6           0       -1.803559   -0.008701    0.009224
     12          7           0       -3.171635   -0.024638    0.301231
     13          1           0       -3.645033   -0.870403    0.000442
     14          1           0       -3.661806    0.815958    0.012842
     15          6           0       -1.076105   -1.199033   -0.026678
     16          1           0       -1.585184   -2.154410    0.066186
     17          6           0        0.316331   -1.183449   -0.176548
     18          1           0        0.848665   -2.131366   -0.216047
 ---------------------------------------------------------------------
 Rotational constants (GHZ):           4.8850055           0.9787925           0.8545093
 Standard basis: 6-311++G(d,p) (5D, 7F)
 There are   270 symmetry adapted cartesian basis functions of A   symmetry.
 There are   261 symmetry adapted basis functions of A   symmetry.
   261 basis functions,   405 primitive gaussians,   270 cartesian basis functions
    32 alpha electrons       32 beta electrons
       nuclear repulsion energy       396.8814565306 Hartrees.
 NAtoms=   18 NActive=   18 NUniq=   18 SFac= 1.00D+00 NAtFMM=   60 NAOKFM=F Big=F
 Integral buffers will be    131072 words long.
 Raffenetti 2 integral format.
 Two-electron integral symmetry is turned on.
 Nuclear repulsion after empirical dispersion term =      396.8500853625 Hartrees.
 One-electron integrals computed using PRISM.
 NBasis=   261 RedAO= T EigKep=  3.67D-06  NBF=   261
 NBsUse=   260 1.00D-06 EigRej=  8.36D-07 NBFU=   260
 ExpMin= 3.60D-02 ExpMax= 6.29D+03 ExpMxC= 9.49D+02 IAcc=3 IRadAn=         5 AccDes= 0.00D+00
 Harris functional with IExCor=  402 and IRadAn=       5 diagonalized for initial guess.
 HarFok:  IExCor=  402 AccDes= 0.00D+00 IRadAn=         5 IDoV= 1 UseB2=F ITyADJ=14
 ICtDFT=  3500011 ScaDFX=  1.000000  1.000000  1.000000  1.000000
 FoFCou: FMM=F IPFlag=           0 FMFlag=      100000 FMFlg1=           0
         NFxFlg=           0 DoJE=T BraDBF=F KetDBF=T FulRan=T
         wScrn=  0.000000 ICntrl=       500 IOpCl=  0 I1Cent=   200000004 NGrid=           0
         NMat0=    1 NMatS0=      1 NMatT0=    0 NMatD0=    1 NMtDS0=    0 NMtDT0=    0
 Petite list used in FoFCou.
 Requested convergence on RMS density matrix=1.00D-08 within 128 cycles.
 Requested convergence on MAX density matrix=1.00D-06.
 Requested convergence on             energy=1.00D-06.
 No special actions if energy rises.
 SCF Done:  E(RB3LYP) =  -365.130114091     A.U. after   14 cycles
            NFock= 14  Conv=0.36D-08     -V/T= 2.0047
 SCF density gives NOpUse=  1 NOpAll=  1.

 **********************************************************************

            Population analysis using the SCF density.

 **********************************************************************

 Orbital symmetries:
 BldTbl:  Degeneracy threshold= 1.00D-02
       Occupied  (A) (A) (A) (A) (A) (A) (A) (A) (A) (A) (A) (A)
                 (A) (A) (A) (A) (A) (A) (A) (A) (A) (A) (A) (A)
                 (A) (A) (A) (A) (A) (A) (A) (A)
       Virtual   (A) (A) (A) (A) (A) (A) (A) (A) (A) (A) (A) (A)
                 (A) (A) (A) (A) (A) (A) (A) (A) (A) (A) (A) (A)
                 (A) (A) (A) (A) (A) (A) (A) (A) (A) (A) (A) (A)
                 (A) (A) (A) (A) (A) (A) (A) (A) (A) (A) (A) (A)
                 (A) (A) (A) (A) (A) (A) (A) (A) (A) (A) (A) (A)
                 (A) (A) (A) (A) (A) (A) (A) (A) (A) (A) (A) (A)
                 (A) (A) (A) (A) (A) (A) (A) (A) (A) (A) (A) (A)
                 (A) (A) (A) (A) (A) (A) (A) (A) (A) (A) (A) (A)
                 (A) (A) (A) (A) (A) (A) (A) (A) (A) (A) (A) (A)
                 (A) (A) (A) (A) (A) (A) (A) (A) (A) (A) (A) (A)
                 (A) (A) (A) (A) (A) (A) (A) (A) (A) (A) (A) (A)
                 (A) (A) (A) (A) (A) (A) (A) (A) (A) (A) (A) (A)
                 (A) (A) (A) (A) (A) (A) (A) (A) (A) (A) (A) (A)
                 (A) (A) (A) (A) (A) (A) (A) (A) (A) (A) (A) (A)
                 (A) (A) (A) (A) (A) (A) (A) (A) (A) (A) (A) (A)
                 (A) (A) (A) (A) (A) (A) (A) (A) (A) (A) (A) (A)
                 (A) (A) (A) (A) (A) (A) (A) (A) (A) (A) (A) (A)
                 (A) (A) (A) (A) (A) (A) (A) (A) (A) (A) (A) (A)
                 (A) (A) (A) (A) (A) (A) (A) (A) (A) (A) (A) (A)
 The electronic state is 1-A.
 Alpha  occ. eigenvalues --  -14.32406 -10.21409 -10.17686 -10.17561 -10.17488
 Alpha  occ. eigenvalues --  -10.17401 -10.17050 -10.17045 -10.16679  -0.92582
 Alpha  occ. eigenvalues --   -0.84902  -0.78187  -0.74699  -0.71624  -0.61919
 Alpha  occ. eigenvalues --   -0.61581  -0.56285  -0.52176  -0.51587  -0.48272
 Alpha  occ. eigenvalues --   -0.44896  -0.43851  -0.43511  -0.42024  -0.39562
 Alpha  occ. eigenvalues --   -0.38502  -0.35090  -0.34370  -0.31292  -0.26827
 Alpha  occ. eigenvalues --   -0.25444  -0.21205
 Alpha virt. eigenvalues --   -0.02089  -0.01349  -0.00458  -0.00007   0.00454
 Alpha virt. eigenvalues --    0.00835   0.02000   0.02627   0.03126   0.04167
 Alpha virt. eigenvalues --    0.05080   0.06184   0.06489   0.07560   0.08769
 Alpha virt. eigenvalues --    0.08901   0.09223   0.10100   0.10718   0.11131
 Alpha virt. eigenvalues --    0.11755   0.12128   0.12380   0.12670   0.13691
 Alpha virt. eigenvalues --    0.13903   0.14234   0.14391   0.14968   0.15756
 Alpha virt. eigenvalues --    0.15780   0.15890   0.16318   0.16446   0.16987
 Alpha virt. eigenvalues --    0.17832   0.18239   0.18760   0.20458   0.20779
 Alpha virt. eigenvalues --    0.22393   0.22522   0.22994   0.24343   0.24684
 Alpha virt. eigenvalues --    0.24793   0.25139   0.25927   0.26301   0.27369
 Alpha virt. eigenvalues --    0.28090   0.28334   0.29729   0.30060   0.30758
 Alpha virt. eigenvalues --    0.31310   0.32065   0.32312   0.34660   0.37407
 Alpha virt. eigenvalues --    0.38339   0.38543   0.40151   0.42579   0.49695
 Alpha virt. eigenvalues --    0.50561   0.51414   0.52536   0.53661   0.54434
 Alpha virt. eigenvalues --    0.55156   0.55700   0.56222   0.57486   0.58769
 Alpha virt. eigenvalues --    0.60578   0.61048   0.61988   0.63261   0.65017
 Alpha virt. eigenvalues --    0.65685   0.66593   0.67646   0.68005   0.68843
 Alpha virt. eigenvalues --    0.70993   0.71980   0.72157   0.75385   0.76321
 Alpha virt. eigenvalues --    0.77237   0.78005   0.79298   0.79502   0.80821
 Alpha virt. eigenvalues --    0.81779   0.84769   0.85698   0.87265   0.89025
 Alpha virt. eigenvalues --    0.89617   0.90546   0.91146   0.91816   0.93457
 Alpha virt. eigenvalues --    0.94325   0.97481   1.00397   1.03267   1.06238
 Alpha virt. eigenvalues --    1.07784   1.09668   1.10054   1.15630   1.16904
 Alpha virt. eigenvalues --    1.19080   1.26753   1.30068   1.34081   1.41966
 Alpha virt. eigenvalues --    1.42432   1.46280   1.46332   1.50885   1.52334
 Alpha virt. eigenvalues --    1.53264   1.53344   1.54423   1.56162   1.56805
 Alpha virt. eigenvalues --    1.58450   1.60164   1.62102   1.64769   1.67154
 Alpha virt. eigenvalues --    1.67435   1.70033   1.70716   1.75305   1.77109
 Alpha virt. eigenvalues --    1.78060   1.79730   1.80639   1.83378   1.87077
 Alpha virt. eigenvalues --    1.87434   1.91749   1.92682   1.93181   1.96035
 Alpha virt. eigenvalues --    1.97892   1.99165   2.00043   2.04819   2.05032
 Alpha virt. eigenvalues --    2.07210   2.09187   2.11312   2.11602   2.13591
 Alpha virt. eigenvalues --    2.17999   2.22796   2.27431   2.28245   2.36411
 Alpha virt. eigenvalues --    2.37604   2.44141   2.44868   2.46548   2.49203
 Alpha virt. eigenvalues --    2.56327   2.57720   2.59468   2.59731   2.62307
 Alpha virt. eigenvalues --    2.66124   2.67716   2.67834   2.71239   2.71377
 Alpha virt. eigenvalues --    2.72677   2.73409   2.73566   2.75214   2.79558
 Alpha virt. eigenvalues --    2.79881   2.83191   2.83822   2.86957   2.87323
 Alpha virt. eigenvalues --    2.89290   2.92578   2.95001   2.95539   3.00333
 Alpha virt. eigenvalues --    3.04658   3.09492   3.15706   3.15910   3.27249
 Alpha virt. eigenvalues --    3.27865   3.33281   3.35448   3.46881   3.48856
 Alpha virt. eigenvalues --    3.52583   3.60116   3.68480   3.78137   3.85797
 Alpha virt. eigenvalues --    3.99422   4.01770   4.03562   4.14654   4.16634
 Alpha virt. eigenvalues --    4.30794   4.75226   4.84452   4.97523  23.59354
 Alpha virt. eigenvalues --   23.81570  23.94267  23.97304  24.05873  24.08863
 Alpha virt. eigenvalues --   24.16521  24.27943  35.62212
          Condensed to atoms (all electrons):
               1          2          3          4          5          6
     1  H    0.567046   0.391250  -0.045208  -0.025818  -0.012193   0.014282
     2  C    0.391250   5.336729   0.363242   0.493062  -0.099006  -0.336729
     3  H   -0.045208   0.363242   0.551770   0.002602   0.011006  -0.013817
     4  C   -0.025818   0.493062   0.002602   8.398797   0.371364  -1.835996
     5  H   -0.012193  -0.099006   0.011006   0.371364   0.566972   0.039737
     6  C    0.014282  -0.336729  -0.013817  -1.835996   0.039737   8.482432
     7  C   -0.002018   0.132779   0.000464  -0.613859  -0.009038   0.053812
     8  H   -0.001128   0.003439   0.000933   0.012358   0.001863  -0.046046
     9  C   -0.001226   0.065633  -0.003775  -0.209811  -0.014644  -0.569212
    10  H    0.000092   0.001612  -0.000009   0.011806  -0.000010   0.029583
    11  C   -0.000287   0.002039  -0.000196   0.102003  -0.001246   0.179277
    12  N   -0.000068  -0.000040  -0.000058  -0.003360  -0.000853  -0.048607
    13  H   -0.000011   0.000011  -0.000012  -0.000535  -0.000037  -0.001837
    14  H   -0.000009  -0.000045  -0.000004  -0.000075  -0.000020  -0.002419
    15  C   -0.002421   0.060003  -0.002963  -0.314247  -0.016436  -0.569717
    16  H    0.000086   0.001122   0.000032   0.011773   0.000164   0.023731
    17  C   -0.003077   0.138665   0.005187  -0.398183  -0.012035   0.099122
    18  H   -0.001026   0.005497   0.000769   0.017228   0.001332  -0.058551
               7          8          9         10         11         12
     1  H   -0.002018  -0.001128  -0.001226   0.000092  -0.000287  -0.000068
     2  C    0.132779   0.003439   0.065633   0.001612   0.002039  -0.000040
     3  H    0.000464   0.000933  -0.003775  -0.000009  -0.000196  -0.000058
     4  C   -0.613859   0.012358  -0.209811   0.011806   0.102003  -0.003360
     5  H   -0.009038   0.001863  -0.014644  -0.000010  -0.001246  -0.000853
     6  C    0.053812  -0.046046  -0.569212   0.029583   0.179277  -0.048607
     7  C    7.225576   0.367572  -0.029885  -0.078436  -0.184096   0.021753
     8  H    0.367572   0.541851  -0.082585  -0.024986   0.006664   0.000080
     9  C   -0.029885  -0.082585   6.249001   0.471101   0.289855  -0.087766
    10  H   -0.078436  -0.024986   0.471101   0.586638  -0.086694  -0.019946
    11  C   -0.184096   0.006664   0.289855  -0.086694   5.753796   0.121656
    12  N    0.021753   0.000080  -0.087766  -0.019946   0.121656   6.662677
    13  H   -0.012643  -0.000371   0.058617   0.002956  -0.017128   0.374953
    14  H    0.017650   0.001170  -0.078744  -0.000425  -0.018989   0.375105
    15  C    0.820024   0.030985  -0.622695  -0.041142   0.300338  -0.089675
    16  H    0.005841   0.002042  -0.037982  -0.004500  -0.087497  -0.019776
    17  C   -1.336135   0.012851   0.723251   0.011642  -0.213037   0.017954
    18  H    0.016348  -0.003077   0.030598   0.001986   0.006162   0.000226
              13         14         15         16         17         18
     1  H   -0.000011  -0.000009  -0.002421   0.000086  -0.003077  -0.001026
     2  C    0.000011  -0.000045   0.060003   0.001122   0.138665   0.005497
     3  H   -0.000012  -0.000004  -0.002963   0.000032   0.005187   0.000769
     4  C   -0.000535  -0.000075  -0.314247   0.011773  -0.398183   0.017228
     5  H   -0.000037  -0.000020  -0.016436   0.000164  -0.012035   0.001332
     6  C   -0.001837  -0.002419  -0.569717   0.023731   0.099122  -0.058551
     7  C   -0.012643   0.017650   0.820024   0.005841  -1.336135   0.016348
     8  H   -0.000371   0.001170   0.030985   0.002042   0.012851  -0.003077
     9  C    0.058617  -0.078744  -0.622695  -0.037982   0.723251   0.030598
    10  H    0.002956  -0.000425  -0.041142  -0.004500   0.011642   0.001986
    11  C   -0.017128  -0.018989   0.300338  -0.087497  -0.213037   0.006162
    12  N    0.374953   0.375105  -0.089675  -0.019776   0.017954   0.000226
    13  H    0.457832  -0.039376  -0.078213  -0.000678   0.016410   0.001118
    14  H   -0.039376   0.457795   0.059659   0.003104  -0.012635  -0.000353
    15  C   -0.078213   0.059659   6.319738   0.459389  -0.084119  -0.077925
    16  H   -0.000678   0.003104   0.459389   0.586845  -0.058532  -0.024347
    17  C    0.016410  -0.012635  -0.084119  -0.058532   7.092980   0.364068
    18  H    0.001118  -0.000353  -0.077925  -0.024347   0.364068   0.541952
 Mulliken charges:
               1
     1  H    0.121732
     2  C   -0.559263
     3  H    0.130038
     4  C   -0.019108
     5  H    0.173078
     6  C    0.560957
     7  C   -0.395710
     8  H    0.176386
     9  C   -0.149732
    10  H    0.138730
    11  C   -0.152620
    12  N   -0.304255
    13  H    0.238943
    14  H    0.238611
    15  C   -0.150584
    16  H    0.139182
    17  C   -0.364379
    18  H    0.177995
 Sum of Mulliken charges =  -0.00000
 Mulliken charges with hydrogens summed into heavy atoms:
               1
     2  C   -0.307493
     4  C    0.153970
     6  C    0.560957
     7  C   -0.219324
     9  C   -0.011002
    11  C   -0.152620
    12  N    0.173298
    15  C   -0.011401
    17  C   -0.186384
 DipInt: DoE/N= T F RetVal/Mat= T F Init=T NMatP=  1 IDeriv=0 Min/MaxMlt=  0  4
 Entering OneElI...
 OneElI was handed 25769614903 working-precision words.
 Multipole integrals L=0 to 4 MinM= 0 MaxM= 0.
 Requested accuracy = 0.1000D-12
 ShPair: Thresh= 1.00D-13 NBox=     0 BxSize= 0.00D+00 RnKept= 1.54D+01
         NSMCal=                 4950 NSMKep=                4642
 PrmmSu-InSpLW:  IPartL=    0 NPrtUS=    1 NPrtUL=    1 DoSpLW=F IThBeg=    0 IThEnd=    0 NThAct=    1.
 PrsmSu:  NPrtUS=   1 ThrOK=F IAlg=1 NPAlg=1 LenDen=           0 ISkipM=0 DoSpLW=F IThBeg=    0 IThEnd=    0.
 Prism:   IPart=     0 DynPar=F LinDyn=F Incr=          46.
 PRISM was handed 25769305886 working-precision words and  4642 shell-pairs
 IPart=  0 NShTot=        4642 NBatch=          68 AvBLen=        68.3
 PrsmSu-ThDecC:  IPartSL=    0    0 NPrtUSL=    1    1 IThBeg=    0 IThEnd=    0 CPU=   -1 GPU=   -1 NThAct=    1.
 PrSmSu:  NxtVal=             47.
 Electronic moments (au):
        -64.00000000         -0.56415987         -0.02083163         -0.33237774
      -1054.37806741       -232.30919807        -77.45145645         -0.17296871
          1.93281159          0.05420794       -608.59060443         -9.05936946
        -17.53866248        152.58741836         22.76550351       -408.67146349
       -145.28181327          0.59697783         32.28094243         -0.97201236
     -37577.96076494      -2548.82133723       -460.52215264         -8.83157133
       -934.40110441          3.01117097          2.19749304       -100.35659026
         -1.47662752      -1664.01269174      -1793.64686244       -231.56610196
          5.54251405         31.55518730          2.27668875
 Electronic spatial extent (au):  <R**2>=           1364.1387
 DipInt: DoE/N= F T RetVal/Mat= T F Init=T NMatP=  1 IDeriv=0 Min/MaxMlt=  0  4
 Nuclear    moments (au):
         64.00000000          0.00000000          0.00000000          0.00000000
       1020.81670839        194.75754872         34.24975821          0.00000000
          0.00000000          0.00000000        557.34117136          8.94536691
         18.46937974       -175.63889489        -24.07812579        392.51949706
        156.94359971         -0.72294232        -32.46399447          0.89242902
      34213.85265156       1743.08960808        161.53720076         -1.52371912
       1040.06802481         -1.64427370         -2.72163892        112.76178919
          1.96086675        910.12291898       1060.33857700         13.21484613
         -2.57395069        -41.19489209         -3.29724656
 Total      moments (au):
         -0.00000000         -0.56415987         -0.02083163         -0.33237774
        -33.56135902        -37.55164934        -43.20169824         -0.17296871
          1.93281159          0.05420794        -51.24943307         -0.11400255
          0.93071726        -23.05147653         -1.31262228        -16.15196643
         11.66178645         -0.12596449         -0.18305203         -0.07958333
      -3364.10811338       -805.73172915       -298.98495188        -10.35529045
        105.66692040          1.36689727         -0.52414588         12.40519893
          0.48423923       -753.88977276       -733.30828545       -218.35125583
          2.96856336         -9.63970479         -1.02055781
 Traceless Quadrup. (au):
          4.54354318          0.55325286         -5.09679604         -0.17296871
          1.93281159          0.05420794
 Charge=             -0.0000 electrons
 Dipole moment (field-independent basis, Debye):
    X=             -1.4340    Y=             -0.0529    Z=             -0.8448  Tot=              1.6652
 Quadrupole moment (field-independent basis, Debye-Ang):
   XX=            -45.1412   YY=            -50.5083   ZZ=            -58.1078
   XY=             -0.2326   XZ=              2.5997   YZ=              0.0729
 Traceless Quadrupole moment (field-independent basis, Debye-Ang):
   XX=              6.1112   YY=              0.7441   ZZ=             -6.8554
   XY=             -0.2326   XZ=              2.5997   YZ=              0.0729
 Octapole moment (field-independent basis, Debye-Ang**2):
  XXX=            -36.4774  YYY=             -0.0811  ZZZ=              0.6624  XYY=            -16.4072
  XXY=             -0.9343  XXZ=            -11.4963  XZZ=              8.3004  YZZ=             -0.0897
  YYZ=             -0.1303  XYZ=             -0.0566
 Hexadecapole moment (field-independent basis, Debye-Ang**3):
 XXXX=          -1267.0844 YYYY=           -303.4772 ZZZZ=           -112.6121 XXXY=             -3.9003
 XXXZ=             39.7992 YYYX=              0.5148 YYYZ=             -0.1974 ZZZX=              4.6724
 ZZZY=              0.1824 XXYY=           -283.9510 XXZZ=           -276.1991 YYZZ=            -82.2416
 XXYZ=              1.1181 YYXZ=             -3.6308 ZZXY=             -0.3844
 N-N= 3.968500853625D+02 E-N=-1.641419765352D+03  KE= 3.634333856441D+02
 Entering OneElI...
 OneElI was handed 25769655538 working-precision words.
 Calculate electrostatic properties
    NBasis =   261  MinDer = 0  MaxDer = 0
    NGrid  =    18  NMatD  =   1
 Requested accuracy = 0.1000D-12
 ShPair: Thresh= 1.00D-13 NBox=     0 BxSize= 0.00D+00 RnKept= 1.54D+01
         NSMCal=                 4950 NSMKep=                4458
 PrmmSu-InSpLW:  IPartL=    0 NPrtUS=   48 NPrtUL=    1 DoSpLW=F IThBeg=    0 IThEnd=   47 NThAct=   48.
 PrsmSu:  NPrtUS=  48 ThrOK=T IAlg=1 NPAlg=1 LenDen=           0 ISkipM=0 DoSpLW=F IThBeg=    0 IThEnd=   47.
 Prism:   IPart=     0 DynPar=F LinDyn=F Incr=          16.
 PRISM was handed   536770019 working-precision words and  4458 shell-pairs
 PRISM was handed   536770019 working-precision words and  4458 shell-pairs
 PRISM was handed   536770019 working-precision words and  4458 shell-pairs
 PRISM was handed   536770019 working-precision words and  4458 shell-pairs
 PRISM was handed   536770019 working-precision words and  4458 shell-pairs
 PRISM was handed   536770019 working-precision words and  4458 shell-pairs
 PRISM was handed   536770019 working-precision words and  4458 shell-pairs
 PRISM was handed   536770019 working-precision words and  4458 shell-pairs
 PRISM was handed   536770019 working-precision words and  4458 shell-pairs
 PRISM was handed   536770019 working-precision words and  4458 shell-pairs
 PRISM was handed   536770019 working-precision words and  4458 shell-pairs
 PRISM was handed   536770019 working-precision words and  4458 shell-pairs
 PRISM was handed   536770019 working-precision words and  4458 shell-pairs
 PRISM was handed   536770019 working-precision words and  4458 shell-pairs
 PRISM was handed   536770019 working-precision words and  4458 shell-pairs
 PRISM was handed   536770019 working-precision words and  4458 shell-pairs
 PRISM was handed   536770019 working-precision words and  4458 shell-pairs
 PRISM was handed   536770019 working-precision words and  4458 shell-pairs
 PRISM was handed   536770019 working-precision words and  4458 shell-pairs
 PRISM was handed   536770019 working-precision words and  4458 shell-pairs
 PRISM was handed   536770019 working-precision words and  4458 shell-pairs
 PRISM was handed   536770019 working-precision words and  4458 shell-pairs
 PRISM was handed   536770019 working-precision words and  4458 shell-pairs
 PRISM was handed   536770019 working-precision words and  4458 shell-pairs
 PRISM was handed   536770019 working-precision words and  4458 shell-pairs
 PRISM was handed   536770019 working-precision words and  4458 shell-pairs
 PRISM was handed   536770019 working-precision words and  4458 shell-pairs
 PRISM was handed   536770019 working-precision words and  4458 shell-pairs
 PRISM was handed   536770019 working-precision words and  4458 shell-pairs
 PRISM was handed   536770019 working-precision words and  4458 shell-pairs
 PRISM was handed   536770019 working-precision words and  4458 shell-pairs
 PRISM was handed   536770019 working-precision words and  4458 shell-pairs
 PRISM was handed   536770019 working-precision words and  4458 shell-pairs
 PRISM was handed   536770019 working-precision words and  4458 shell-pairs
 PRISM was handed   536770019 working-precision words and  4458 shell-pairs
 PRISM was handed   536770019 working-precision words and  4458 shell-pairs
 PRISM was handed   536770019 working-precision words and  4458 shell-pairs
 PRISM was handed   536770019 working-precision words and  4458 shell-pairs
 PRISM was handed   536770019 working-precision words and  4458 shell-pairs
 PRISM was handed   536770019 working-precision words and  4458 shell-pairs
 PRISM was handed   536770019 working-precision words and  4458 shell-pairs
 PRISM was handed   536770019 working-precision words and  4458 shell-pairs
 PRISM was handed   536770019 working-precision words and  4458 shell-pairs
 PRISM was handed   536770019 working-precision words and  4458 shell-pairs
 PRISM was handed   536770019 working-precision words and  4458 shell-pairs
 PRISM was handed   536770019 working-precision words and  4458 shell-pairs
 PRISM was handed   536770019 working-precision words and  4458 shell-pairs
 PRISM was handed   536770019 working-precision words and  4458 shell-pairs
 IPart= 45 NShTot=        1404 NBatch=          78 AvBLen=        18.0
 PrsmSu-ThDecC:  IPartSL=   45    0 NPrtUSL=   48    1 IThBeg=    0 IThEnd=   47 CPU=   -1 GPU=   -1 NThAct=   48.
 IPart= 43 NShTot=        1458 NBatch=          81 AvBLen=        18.0
 PrsmSu-ThDecC:  IPartSL=   43    0 NPrtUSL=   48    1 IThBeg=    0 IThEnd=   47 CPU=   -1 GPU=   -1 NThAct=   47.
 IPart= 34 NShTot=        1512 NBatch=          84 AvBLen=        18.0
 IPart= 21 NShTot=        1620 NBatch=          90 AvBLen=        18.0
 PrsmSu-ThDecC:  IPartSL=   34    0 NPrtUSL=   48    1 IThBeg=    0 IThEnd=   47 CPU=   -1 GPU=   -1 NThAct=   46.
 PrsmSu-ThDecC:  IPartSL=   21    0 NPrtUSL=   48    1 IThBeg=    0 IThEnd=   47 CPU=   -1 GPU=   -1 NThAct=   45.
 IPart= 26 NShTot=        1566 NBatch=          87 AvBLen=        18.0
 PrsmSu-ThDecC:  IPartSL=   26    0 NPrtUSL=   48    1 IThBeg=    0 IThEnd=   47 CPU=   -1 GPU=   -1 NThAct=   44.
 IPart= 40 NShTot=        1476 NBatch=          82 AvBLen=        18.0
 IPart= 27 NShTot=        1530 NBatch=          85 AvBLen=        18.0
 IPart= 29 NShTot=        1530 NBatch=          85 AvBLen=        18.0
 IPart= 37 NShTot=        1494 NBatch=          83 AvBLen=        18.0
 IPart= 19 NShTot=        1620 NBatch=          90 AvBLen=        18.0
 IPart= 41 NShTot=        1476 NBatch=          82 AvBLen=        18.0
 IPart= 24 NShTot=        1602 NBatch=          89 AvBLen=        18.0
 PrsmSu-ThDecC:  IPartSL=   40    0 NPrtUSL=   48    1 IThBeg=    0 IThEnd=   47 CPU=   -1 GPU=   -1 NThAct=   43.
 PrsmSu-ThDecC:  IPartSL=   29    0 NPrtUSL=   48    1 IThBeg=    0 IThEnd=   47 CPU=   -1 GPU=   -1 NThAct=   42.
 PrsmSu-ThDecC:  IPartSL=   24    0 NPrtUSL=   48    1 IThBeg=    0 IThEnd=   47 CPU=   -1 GPU=   -1 NThAct=   41.
 PrsmSu-ThDecC:  IPartSL=   37    0 NPrtUSL=   48    1 IThBeg=    0 IThEnd=   47 CPU=   -1 GPU=   -1 NThAct=   40.
 PrsmSu-ThDecC:  IPartSL=   27    0 NPrtUSL=   48    1 IThBeg=    0 IThEnd=   47 CPU=   -1 GPU=   -1 NThAct=   39.
 IPart= 32 NShTot=        1530 NBatch=          85 AvBLen=        18.0
 PrsmSu-ThDecC:  IPartSL=   19    0 NPrtUSL=   48    1 IThBeg=    0 IThEnd=   47 CPU=   -1 GPU=   -1 NThAct=   38.
 PrsmSu-ThDecC:  IPartSL=   32    0 NPrtUSL=   48    1 IThBeg=    0 IThEnd=   47 CPU=   -1 GPU=   -1 NThAct=   37.
 PrsmSu-ThDecC:  IPartSL=   41    0 NPrtUSL=   48    1 IThBeg=    0 IThEnd=   47 CPU=   -1 GPU=   -1 NThAct=   36.
 IPart= 12 NShTot=        1800 NBatch=         100 AvBLen=        18.0
 PrsmSu-ThDecC:  IPartSL=   12    0 NPrtUSL=   48    1 IThBeg=    0 IThEnd=   47 CPU=   -1 GPU=   -1 NThAct=   35.
 IPart=  9 NShTot=        1854 NBatch=         103 AvBLen=        18.0
 PrsmSu-ThDecC:  IPartSL=    9    0 NPrtUSL=   48    1 IThBeg=    0 IThEnd=   47 CPU=   -1 GPU=   -1 NThAct=   34.
 IPart=  5 NShTot=        2052 NBatch=         114 AvBLen=        18.0
 PrsmSu-ThDecC:  IPartSL=    5    0 NPrtUSL=   48    1 IThBeg=    0 IThEnd=   47 CPU=   -1 GPU=   -1 NThAct=   33.
 IPart=  0 NShTot=        2268 NBatch=         126 AvBLen=        18.0
 PrsmSu-ThDecC:  IPartSL=    0    0 NPrtUSL=   48    1 IThBeg=    0 IThEnd=   47 CPU=   -1 GPU=   -1 NThAct=   32.
 IPart= 30 NShTot=        1530 NBatch=          85 AvBLen=        18.0
 IPart= 47 NShTot=        1386 NBatch=          77 AvBLen=        18.0
 PrsmSu-ThDecC:  IPartSL=   30    0 NPrtUSL=   48    1 IThBeg=    0 IThEnd=   47 CPU=   -1 GPU=   -1 NThAct=   31.
 PrsmSu-ThDecC:  IPartSL=   47    0 NPrtUSL=   48    1 IThBeg=    0 IThEnd=   47 CPU=   -1 GPU=   -1 NThAct=   30.
 IPart= 35 NShTot=        1512 NBatch=          84 AvBLen=        18.0
 PrsmSu-ThDecC:  IPartSL=   35    0 NPrtUSL=   48    1 IThBeg=    0 IThEnd=   47 CPU=   -1 GPU=   -1 NThAct=   29.
 IPart= 36 NShTot=        1494 NBatch=          83 AvBLen=        18.0
 IPart= 22 NShTot=        1620 NBatch=          90 AvBLen=        18.0
 PrsmSu-ThDecC:  IPartSL=   36    0 NPrtUSL=   48    1 IThBeg=    0 IThEnd=   47 CPU=   -1 GPU=   -1 NThAct=   28.
 PrsmSu-ThDecC:  IPartSL=   22    0 NPrtUSL=   48    1 IThBeg=    0 IThEnd=   47 CPU=   -1 GPU=   -1 NThAct=   27.
 IPart=  3 NShTot=        2124 NBatch=         118 AvBLen=        18.0
 PrsmSu-ThDecC:  IPartSL=    3    0 NPrtUSL=   48    1 IThBeg=    0 IThEnd=   47 CPU=   -1 GPU=   -1 NThAct=   26.
 IPart=  1 NShTot=        2214 NBatch=         123 AvBLen=        18.0
 PrsmSu-ThDecC:  IPartSL=    1    0 NPrtUSL=   48    1 IThBeg=    0 IThEnd=   47 CPU=   -1 GPU=   -1 NThAct=   25.
 IPart= 16 NShTot=        1674 NBatch=          93 AvBLen=        18.0
 PrsmSu-ThDecC:  IPartSL=   16    0 NPrtUSL=   48    1 IThBeg=    0 IThEnd=   47 CPU=   -1 GPU=   -1 NThAct=   24.
 IPart=  7 NShTot=        1980 NBatch=         110 AvBLen=        18.0
 PrsmSu-ThDecC:  IPartSL=    7    0 NPrtUSL=   48    1 IThBeg=    0 IThEnd=   47 CPU=   -1 GPU=   -1 NThAct=   23.
 IPart= 13 NShTot=        1728 NBatch=          96 AvBLen=        18.0
 PrsmSu-ThDecC:  IPartSL=   13    0 NPrtUSL=   48    1 IThBeg=    0 IThEnd=   47 CPU=   -1 GPU=   -1 NThAct=   22.
 IPart= 18 NShTot=        1620 NBatch=          90 AvBLen=        18.0
 PrsmSu-ThDecC:  IPartSL=   18    0 NPrtUSL=   48    1 IThBeg=    0 IThEnd=   47 CPU=   -1 GPU=   -1 NThAct=   21.
 IPart= 11 NShTot=        1800 NBatch=         100 AvBLen=        18.0
 PrsmSu-ThDecC:  IPartSL=   11    0 NPrtUSL=   48    1 IThBeg=    0 IThEnd=   47 CPU=   -1 GPU=   -1 NThAct=   20.
 IPart= 14 NShTot=        1728 NBatch=          96 AvBLen=        18.0
 PrsmSu-ThDecC:  IPartSL=   14    0 NPrtUSL=   48    1 IThBeg=    0 IThEnd=   47 CPU=   -1 GPU=   -1 NThAct=   19.
 IPart= 42 NShTot=        1476 NBatch=          82 AvBLen=        18.0
 PrsmSu-ThDecC:  IPartSL=   42    0 NPrtUSL=   48    1 IThBeg=    0 IThEnd=   47 CPU=   -1 GPU=   -1 NThAct=   18.
 IPart= 33 NShTot=        1530 NBatch=          85 AvBLen=        18.0
 PrsmSu-ThDecC:  IPartSL=   33    0 NPrtUSL=   48    1 IThBeg=    0 IThEnd=   47 CPU=   -1 GPU=   -1 NThAct=   17.
 IPart= 17 NShTot=        1638 NBatch=          91 AvBLen=        18.0
 PrsmSu-ThDecC:  IPartSL=   17    0 NPrtUSL=   48    1 IThBeg=    0 IThEnd=   47 CPU=   -1 GPU=   -1 NThAct=   16.
 IPart=  8 NShTot=        1926 NBatch=         107 AvBLen=        18.0
 PrsmSu-ThDecC:  IPartSL=    8    0 NPrtUSL=   48    1 IThBeg=    0 IThEnd=   47 CPU=   -1 GPU=   -1 NThAct=   15.
 IPart=  2 NShTot=        2142 NBatch=         119 AvBLen=        18.0
 PrsmSu-ThDecC:  IPartSL=    2    0 NPrtUSL=   48    1 IThBeg=    0 IThEnd=   47 CPU=   -1 GPU=   -1 NThAct=   14.
 IPart= 10 NShTot=        1800 NBatch=         100 AvBLen=        18.0
 PrsmSu-ThDecC:  IPartSL=   10    0 NPrtUSL=   48    1 IThBeg=    0 IThEnd=   47 CPU=   -1 GPU=   -1 NThAct=   13.
 IPart= 23 NShTot=        1620 NBatch=          90 AvBLen=        18.0
 PrsmSu-ThDecC:  IPartSL=   23    0 NPrtUSL=   48    1 IThBeg=    0 IThEnd=   47 CPU=   -1 GPU=   -1 NThAct=   12.
 IPart= 31 NShTot=        1530 NBatch=          85 AvBLen=        18.0
 PrsmSu-ThDecC:  IPartSL=   31    0 NPrtUSL=   48    1 IThBeg=    0 IThEnd=   47 CPU=   -1 GPU=   -1 NThAct=   11.
 IPart= 38 NShTot=        1494 NBatch=          83 AvBLen=        18.0
 PrsmSu-ThDecC:  IPartSL=   38    0 NPrtUSL=   48    1 IThBeg=    0 IThEnd=   47 CPU=   -1 GPU=   -1 NThAct=   10.
 IPart= 28 NShTot=        1530 NBatch=          85 AvBLen=        18.0
 PrsmSu-ThDecC:  IPartSL=   28    0 NPrtUSL=   48    1 IThBeg=    0 IThEnd=   47 CPU=   -1 GPU=   -1 NThAct=    9.
 IPart=  6 NShTot=        2052 NBatch=         114 AvBLen=        18.0
 PrsmSu-ThDecC:  IPartSL=    6    0 NPrtUSL=   48    1 IThBeg=    0 IThEnd=   47 CPU=   -1 GPU=   -1 NThAct=    8.
 IPart=  4 NShTot=        2088 NBatch=         116 AvBLen=        18.0
 PrsmSu-ThDecC:  IPartSL=    4    0 NPrtUSL=   48    1 IThBeg=    0 IThEnd=   47 CPU=   -1 GPU=   -1 NThAct=    7.
 IPart= 44 NShTot=        1440 NBatch=          80 AvBLen=        18.0
 PrsmSu-ThDecC:  IPartSL=   44    0 NPrtUSL=   48    1 IThBeg=    0 IThEnd=   47 CPU=   -1 GPU=   -1 NThAct=    6.
 IPart= 15 NShTot=        1692 NBatch=          94 AvBLen=        18.0
 PrsmSu-ThDecC:  IPartSL=   15    0 NPrtUSL=   48    1 IThBeg=    0 IThEnd=   47 CPU=   -1 GPU=   -1 NThAct=    5.
 IPart= 46 NShTot=        1404 NBatch=          78 AvBLen=        18.0
 PrsmSu-ThDecC:  IPartSL=   46    0 NPrtUSL=   48    1 IThBeg=    0 IThEnd=   47 CPU=   -1 GPU=   -1 NThAct=    4.
 IPart= 39 NShTot=        1476 NBatch=          82 AvBLen=        18.0
 PrsmSu-ThDecC:  IPartSL=   39    0 NPrtUSL=   48    1 IThBeg=    0 IThEnd=   47 CPU=   -1 GPU=   -1 NThAct=    3.
 IPart= 25 NShTot=        1584 NBatch=          88 AvBLen=        18.0
 PrsmSu-ThDecC:  IPartSL=   25    0 NPrtUSL=   48    1 IThBeg=    0 IThEnd=   47 CPU=   -1 GPU=   -1 NThAct=    2.
 IPart= 20 NShTot=        1620 NBatch=          90 AvBLen=        18.0
 PrsmSu-ThDecC:  IPartSL=   20    0 NPrtUSL=   48    1 IThBeg=    0 IThEnd=   47 CPU=   -1 GPU=   -1 NThAct=    1.
 PrSmSu:  NxtVal=            769.
 --------------------------------------------------------
       Center         ----      EFG at Nuclei      ----
                      3XX-RR        3YY-RR        3ZZ-RR
 --------------------------------------------------------
     1   Atom       -0.303825      0.168235      0.135591
     2   Atom        0.147120     -0.305593      0.158473
     3   Atom        0.114499      0.167451     -0.281950
     4   Atom        0.138387     -0.318778      0.180390
     5   Atom        0.093893      0.164512     -0.258405
     6   Atom        0.074257      0.150473     -0.224730
     7   Atom        0.161420      0.139032     -0.300452
     8   Atom        0.048228     -0.214346      0.166118
     9   Atom        0.127212      0.064377     -0.191589
    10   Atom        0.030645     -0.201362      0.170716
    11   Atom       -0.044737      0.315968     -0.271231
    12   Atom       -0.564654     -0.467507      1.032161
    13   Atom        0.040666     -0.225368      0.184702
    14   Atom        0.031873     -0.220765      0.188892
    15   Atom        0.130303      0.063394     -0.193697
    16   Atom        0.040065     -0.210414      0.170348
    17   Atom        0.161218      0.141633     -0.302850
    18   Atom        0.036122     -0.201590      0.165468
 --------------------------------------------------------
                        XY            XZ            YZ
 --------------------------------------------------------
     1   Atom        0.016961      0.084383     -0.003275
     2   Atom       -0.010773      0.054225      0.006487
     3   Atom        0.002377      0.127744     -0.006204
     4   Atom       -0.013034      0.070684      0.008225
     5   Atom        0.006811      0.147819     -0.019168
     6   Atom        0.000549     -0.021649     -0.001709
     7   Atom       -0.014854     -0.051209      0.003629
     8   Atom       -0.188292      0.013511      0.020326
     9   Atom        0.018372     -0.048800     -0.009665
    10   Atom        0.196250      0.021422     -0.035305
    11   Atom       -0.004254      0.006444      0.001451
    12   Atom       -0.000152     -0.063133     -0.011973
    13   Atom       -0.217557     -0.085643     -0.149922
    14   Atom        0.223815     -0.085227      0.142171
    15   Atom       -0.016365     -0.049065      0.009095
    16   Atom       -0.190164      0.020407      0.035576
    17   Atom        0.019682     -0.050226     -0.005925
    18   Atom        0.194172      0.011034     -0.014376
 --------------------------------------------------------


 ---------------------------------------------------------------------------------
              Nuclear Quadrupole Coupling Constant in Principal Axis System
 ---------------------------------------------------------------------------------

       Atom             a.u.   MegaHertz   Gauss  10(-4) cm-1        Axes

              Baa    -0.5671     2.724     0.972     0.909  0.9992  0.0063  0.0395
    12 N(14)  Bbb    -0.4676     2.246     0.801     0.749 -0.0066  0.9999  0.0077
              Bcc     1.0347    -4.970    -1.773    -1.658 -0.0394 -0.0080  0.9992
 

 ---------------------------------------------------------------------------------

 No NMR shielding tensors so no spin-rotation constants.
 Leave Link  601 at Thu Apr 21 16:34:10 2022, MaxMem= 25769803776 cpu:              14.9 elap:               0.4
 Calling FoFJK, ICntrl=      2127 FMM=F ISym2X=0 I1Cent= 0 IOpClX= 0 NMat=1 NMatS=1 NMatT=0.
 ***** Axes restored to original set *****
 -------------------------------------------------------------------
 Center     Atomic                   Forces (Hartrees/Bohr)
 Number     Number              X              Y              Z
 -------------------------------------------------------------------
      1        1           0.000126874    0.000621275   -0.000488295
      2        6           0.001682344   -0.007868952    0.005190043
      3        1           0.001681596    0.000047944    0.001330346
      4        6          -0.013290637    0.008260000   -0.003798948
      5        1          -0.001943582    0.000340125    0.000995540
      6        6           0.005930904   -0.002867765   -0.001731430
      7        6           0.008767785   -0.000621840   -0.001028877
      8        1          -0.001137488   -0.000869546   -0.002836358
      9        6          -0.011021360   -0.000491801    0.007530076
     10        1           0.000798694   -0.001252656   -0.000537033
     11        6           0.001162300    0.012611539   -0.009830158
     12        7           0.003848525   -0.005761189    0.004423675
     13        1           0.000694580    0.003625076    0.002989167
     14        1           0.000481428   -0.002255949   -0.004228708
     15        6          -0.011540048   -0.007330546   -0.001336311
     16        1           0.000752609    0.000281143    0.001429532
     17        6           0.013157980    0.001254274   -0.000720068
     18        1          -0.000152504    0.002278866    0.002647808
 -------------------------------------------------------------------
 Cartesian Forces:  Max     0.013290637 RMS     0.005138880

 GradGradGradGradGradGradGradGradGradGradGradGradGradGradGradGradGradGrad
 Berny optimization.
 FormGI is forming the generalized inverse of G from B-inverse, IUseBI=4.
 Internal  Forces:  Max     0.011708459 RMS     0.002833889
 Search for a local minimum.
 Step number   1 out of a maximum of   91
 All quantities printed in internal units (Hartrees-Bohrs-Radians)
 Mixed Optimization -- RFO/linear search
 Second derivative matrix not updated -- first step.
 ITU=  0
     Eigenvalues ---    0.01169   0.01705   0.01806   0.02054   0.02077
     Eigenvalues ---    0.02090   0.02094   0.02098   0.02103   0.02116
     Eigenvalues ---    0.02122   0.02147   0.02890   0.02891   0.04597
     Eigenvalues ---    0.15994   0.15996   0.16000   0.16000   0.16000
     Eigenvalues ---    0.16000   0.16000   0.16000   0.16000   0.21971
     Eigenvalues ---    0.22001   0.22923   0.23906   0.24524   0.24995
     Eigenvalues ---    0.35047   0.35059   0.35215   0.35218   0.35252
     Eigenvalues ---    0.35371   0.35435   0.35796   0.41408   0.42246
     Eigenvalues ---    0.45161   0.45172   0.45565   0.45722   0.45789
     Eigenvalues ---    0.46098   0.46265   0.57325
 RFO step:  Lambda=-3.74741676D-03 EMin= 1.16896968D-02
 Linear search not attempted -- first point.
 Iteration  1 RMS(Cart)=  0.03351044 RMS(Int)=  0.00098168
 Iteration  2 RMS(Cart)=  0.00132779 RMS(Int)=  0.00064411
 Iteration  3 RMS(Cart)=  0.00000057 RMS(Int)=  0.00064411
 Variable       Old X    -DE/DX   Delta X   Delta X   Delta X     New X
                                 (Linear)    (Quad)   (Total)
    R1        2.05076  -0.00019   0.00000  -0.00053  -0.00053   2.05023
    R2        2.04974  -0.00009   0.00000  -0.00024  -0.00024   2.04951
    R3        2.53122  -0.00969   0.00000  -0.01680  -0.01680   2.51442
    R4        2.05598   0.00113   0.00000   0.00318   0.00318   2.05916
    R5        2.77701   0.01171   0.00000   0.03237   0.03237   2.80938
    R6        2.64379  -0.00175   0.00000  -0.00389  -0.00416   2.63962
    R7        2.64424   0.00067   0.00000   0.00137   0.00110   2.64535
    R8        2.05327  -0.00193   0.00000  -0.00543  -0.00543   2.04784
    R9        2.64577  -0.00705   0.00000  -0.01537  -0.01537   2.63039
   R10        2.05267  -0.00066   0.00000  -0.00185  -0.00185   2.05082
   R11        2.63678   0.00389   0.00000   0.00840   0.00867   2.64545
   R12        2.64370   0.00442   0.00000   0.00957   0.00957   2.65326
   R13        2.63708   0.00382   0.00000   0.00826   0.00854   2.64562
   R14        1.91777  -0.00388   0.00000  -0.00852  -0.00852   1.90925
   R15        1.91790  -0.00396   0.00000  -0.00869  -0.00869   1.90920
   R16        2.05323  -0.00081   0.00000  -0.00228  -0.00228   2.05095
   R17        2.64668  -0.00778   0.00000  -0.01691  -0.01691   2.62978
   R18        2.05580  -0.00295   0.00000  -0.00833  -0.00833   2.04747
    A1        2.04221   0.00075   0.00000   0.00469   0.00459   2.04680
    A2        2.10047   0.00234   0.00000   0.01443   0.01433   2.11480
    A3        2.14031  -0.00307   0.00000  -0.01863  -0.01873   2.12158
    A4        2.07887  -0.00139   0.00000  -0.00862  -0.00872   2.07015
    A5        2.17546  -0.00044   0.00000  -0.00184  -0.00193   2.17353
    A6        2.02846   0.00185   0.00000   0.01113   0.01103   2.03950
    A7        2.14043  -0.00398   0.00000  -0.01506  -0.01487   2.12556
    A8        2.07680   0.00638   0.00000   0.02578   0.02597   2.10278
    A9        2.06579  -0.00240   0.00000  -0.01069  -0.01108   2.05471
   A10        2.10755  -0.00368   0.00000  -0.01962  -0.01957   2.08799
   A11        2.10614   0.00270   0.00000   0.01079   0.01067   2.11681
   A12        2.06947   0.00098   0.00000   0.00885   0.00891   2.07837
   A13        2.07484   0.00151   0.00000   0.00941   0.00918   2.08402
   A14        2.10951  -0.00035   0.00000  -0.00248  -0.00205   2.10746
   A15        2.09884  -0.00116   0.00000  -0.00692  -0.00715   2.09169
   A16        2.09902   0.00153   0.00000   0.01372   0.01018   2.10919
   A17        2.06741  -0.00198   0.00000  -0.00079  -0.00327   2.06414
   A18        2.10068   0.00106   0.00000   0.01186   0.00831   2.10899
   A19        1.98646   0.00260   0.00000   0.01656   0.01648   2.00294
   A20        1.98620   0.00258   0.00000   0.01641   0.01632   2.00252
   A21        1.96140  -0.00328   0.00000  -0.01902  -0.01914   1.94226
   A22        2.09854  -0.00100   0.00000  -0.00628  -0.00651   2.09203
   A23        2.10776  -0.00062   0.00000  -0.00350  -0.00304   2.10472
   A24        2.07687   0.00162   0.00000   0.00977   0.00954   2.08642
   A25        2.10734   0.00276   0.00000   0.01131   0.01116   2.11850
   A26        2.10326  -0.00328   0.00000  -0.01705  -0.01707   2.08620
   A27        2.07223   0.00053   0.00000   0.00625   0.00624   2.07847
    D1        0.01331  -0.00035   0.00000  -0.01395  -0.01388  -0.00058
    D2        3.12377   0.00032   0.00000   0.01292   0.01286   3.13662
    D3       -3.10636  -0.00125   0.00000  -0.04124  -0.04118   3.13565
    D4        0.00410  -0.00057   0.00000  -0.01437  -0.01444  -0.01034
    D5        1.57080  -0.00047   0.00000  -0.02405  -0.02413   1.54667
    D6       -1.59073  -0.00045   0.00000  -0.02268  -0.02274  -1.61347
    D7       -1.60111   0.00013   0.00000   0.00181   0.00187  -1.59924
    D8        1.52054   0.00015   0.00000   0.00318   0.00325   1.52380
    D9       -0.00915  -0.00007   0.00000  -0.00428  -0.00429  -0.01344
   D10        3.13963  -0.00013   0.00000  -0.00706  -0.00703   3.13261
   D11       -3.13093  -0.00019   0.00000  -0.00603  -0.00604  -3.13697
   D12        0.01786  -0.00025   0.00000  -0.00881  -0.00878   0.00908
   D13       -3.13974   0.00024   0.00000   0.00741   0.00736  -3.13238
   D14        0.03096  -0.00032   0.00000  -0.01375  -0.01365   0.01731
   D15       -0.01722   0.00023   0.00000   0.00864   0.00862  -0.00860
   D16       -3.12971  -0.00032   0.00000  -0.01252  -0.01239   3.14109
   D17        3.09630   0.00079   0.00000   0.03343   0.03342   3.12972
   D18       -0.04656   0.00097   0.00000   0.04082   0.04083  -0.00572
   D19       -0.03825   0.00075   0.00000   0.03083   0.03081  -0.00744
   D20        3.10208   0.00093   0.00000   0.03822   0.03823   3.14030
   D21        3.02308   0.00189   0.00000   0.07573   0.07564   3.09871
   D22        0.07252  -0.00180   0.00000  -0.07114  -0.07099   0.00153
   D23       -0.11980   0.00208   0.00000   0.08324   0.08310  -0.03670
   D24       -3.07035  -0.00162   0.00000  -0.06364  -0.06353  -3.13388
   D25        2.80213  -0.00160   0.00000  -0.07128  -0.07166   2.73047
   D26        0.52434  -0.00179   0.00000  -0.07521  -0.07567   0.44867
   D27       -0.53416   0.00183   0.00000   0.07703   0.07749  -0.45667
   D28       -2.81195   0.00164   0.00000   0.07310   0.07347  -2.73848
   D29        3.06506   0.00176   0.00000   0.06873   0.06858   3.13364
   D30       -0.07179   0.00179   0.00000   0.07093   0.07075  -0.00105
   D31        0.11469  -0.00198   0.00000  -0.07850  -0.07824   0.03645
   D32       -3.02217  -0.00195   0.00000  -0.07630  -0.07607  -3.09824
   D33        0.04520  -0.00095   0.00000  -0.04046  -0.04047   0.00474
   D34       -3.12498  -0.00047   0.00000  -0.02005  -0.01993   3.13827
   D35       -3.09171  -0.00091   0.00000  -0.03825  -0.03826  -3.12997
   D36        0.02129  -0.00043   0.00000  -0.01784  -0.01772   0.00357
         Item               Value     Threshold  Converged?
 Maximum Force            0.011708     0.000450     NO 
 RMS     Force            0.002834     0.000300     NO 
 Maximum Displacement     0.099457     0.001800     NO 
 RMS     Displacement     0.033281     0.001200     NO 
 Predicted change in Energy=-2.047791D-03
 GradGradGradGradGradGradGradGradGradGradGradGradGradGradGradGradGradGrad

                          Input orientation:                          
 ---------------------------------------------------------------------
 Center     Atomic      Atomic             Coordinates (Angstroms)
 Number     Number       Type             X           Y           Z
 ---------------------------------------------------------------------
      1          1           0        0.960527   -0.388556   -0.649479
      2          6           0        2.042412   -0.321445   -0.695325
      3          1           0        2.465836    0.480432   -1.290270
      4          6           0        2.814333   -1.186074   -0.041884
      5          1           0        2.337886   -1.969973    0.546215
      6          6           0        4.300801   -1.167473   -0.057142
      7          6           0        5.036762   -0.419322    0.864683
      8          1           0        4.518493    0.176311    1.606950
      9          6           0        6.428600   -0.417829    0.847542
     10          1           0        6.969748    0.183374    1.571055
     11          6           0        7.133593   -1.175665   -0.095018
     12          7           0        8.536106   -1.135946   -0.147200
     13          1           0        8.967094   -1.947711   -0.566789
     14          1           0        8.984834   -0.891822    0.724446
     15          6           0        6.402235   -1.931757   -1.018837
     16          1           0        6.922356   -2.522984   -1.765718
     17          6           0        5.010836   -1.926781   -0.994639
     18          1           0        4.469249   -2.518480   -1.722988
 ---------------------------------------------------------------------
                    Distance matrix (angstroms):
                    1          2          3          4          5
     1  H    0.000000
     2  C    1.084934   0.000000
     3  H    1.852486   1.084552   0.000000
     4  C    2.107559   1.330575   2.111198   0.000000
     5  H    2.414060   2.084795   3.064887   1.089661   0.000000
     6  C    3.480662   2.494666   2.757407   1.486662   2.204786
     7  C    4.348486   3.377771   3.473189   2.519715   3.128877
     8  H    4.250843   3.417485   3.563674   2.734759   3.238323
     9  C    5.669369   4.650631   4.591362   3.800553   4.385645
    10  H    6.431844   5.447014   5.344217   4.663092   5.209735
    11  C    6.247697   5.197132   5.095021   4.319599   4.903153
    12  N    7.628910   6.567489   6.384941   5.722961   6.292404
    13  H    8.157384   7.114244   6.977511   6.221903   6.722028
    14  H    8.156620   7.109030   6.959849   6.224864   6.736178
    15  C    5.668340   4.658950   4.624670   3.792561   4.355431
    16  H    6.430021   5.459520   5.395102   4.651320   5.164128
    17  C    4.346295   3.387954   3.515551   2.506196   3.085573
    18  H    4.242656   3.431121   3.632407   2.709274   3.161147
                    6          7          8          9         10
     6  C    0.000000
     7  C    1.396828   0.000000
     8  H    2.149964   1.083671   0.000000
     9  C    2.430627   1.391943   2.139675   0.000000
    10  H    3.405744   2.144443   2.451528   1.085246   0.000000
    11  C    2.833057   2.426887   3.400483   1.399911   2.156301
    12  N    4.236380   3.712527   4.576054   2.438603   2.673291
    13  H    4.758445   4.453379   5.387639   3.284025   3.619570
    14  H    4.756788   3.978718   4.676315   2.602721   2.435850
    15  C    2.434135   2.774819   3.858392   2.403340   3.391665
    16  H    3.410160   3.860034   4.943646   3.391843   4.296589
    17  C    1.399858   2.393781   3.381371   2.771394   3.856537
    18  H    2.151427   3.380026   4.284018   3.854791   4.939963
                   11         12         13         14         15
    11  C    0.000000
    12  N    1.404045   0.000000
    13  H    2.044590   1.010330   0.000000
    14  H    2.044305   1.010308   1.668084   0.000000
    15  C    1.400001   2.438539   2.604439   3.284863   0.000000
    16  H    2.156647   2.673512   2.439123   3.621523   1.085314
    17  C    2.424787   3.710943   3.979380   4.451860   1.391618
    18  H    3.398848   4.575351   4.679015   5.387621   2.139277
                   16         17         18
    16  H    0.000000
    17  C    2.145676   0.000000
    18  H    2.453483   1.083474   0.000000
 Stoichiometry    C8H9N
 Framework group  C1[X(C8H9N)]
 Deg. of freedom    48
 Full point group                 C1      NOp   1
 Largest Abelian subgroup         C1      NOp   1
 Largest concise Abelian subgroup C1      NOp   1
                         Standard orientation:                         
 ---------------------------------------------------------------------
 Center     Atomic      Atomic             Coordinates (Angstroms)
 Number     Number       Type             X           Y           Z
 ---------------------------------------------------------------------
      1          1           0        4.435742   -0.004873    0.406494
      2          6           0        3.367382    0.015545    0.594299
      3          1           0        3.045542    0.069288    1.628603
      4          6           0        2.491435   -0.018068   -0.406709
      5          1           0        2.867917   -0.066355   -1.428125
      6          6           0        1.014787    0.000211   -0.235413
      7          6           0        0.296424    1.196375   -0.170026
      8          1           0        0.822735    2.141579   -0.232718
      9          6           0       -1.087410    1.201186   -0.020070
     10          1           0       -1.613746    2.148451    0.038393
     11          6           0       -1.802505    0.000569    0.063048
     12          7           0       -3.191863    0.002661    0.265588
     13          1           0       -3.666807   -0.831204   -0.050425
     14          1           0       -3.664295    0.836876   -0.053180
     15          6           0       -1.089286   -1.202116   -0.006726
     16          1           0       -1.616820   -2.148070    0.062451
     17          6           0        0.294281   -1.197364   -0.156126
     18          1           0        0.822115   -2.142345   -0.204273
 ---------------------------------------------------------------------
 Rotational constants (GHZ):           4.9275638           0.9722295           0.8490052
 Standard basis: 6-311++G(d,p) (5D, 7F)
 There are   270 symmetry adapted cartesian basis functions of A   symmetry.
 There are   261 symmetry adapted basis functions of A   symmetry.
   261 basis functions,   405 primitive gaussians,   270 cartesian basis functions
    32 alpha electrons       32 beta electrons
       nuclear repulsion energy       396.5190350720 Hartrees.
 NAtoms=   18 NActive=   18 NUniq=   18 SFac= 1.00D+00 NAtFMM=   60 NAOKFM=F Big=F
 Integral buffers will be    131072 words long.
 Raffenetti 2 integral format.
 Two-electron integral symmetry is turned on.
 Nuclear repulsion after empirical dispersion term =      396.4877022117 Hartrees.
 One-electron integrals computed using PRISM.
 NBasis=   261 RedAO= T EigKep=  2.72D-06  NBF=   261
 NBsUse=   260 1.00D-06 EigRej=  7.81D-07 NBFU=   260
 Initial guess from the checkpoint file:  "4AS-2.chk"
 B after Tr=     0.000000   -0.000000   -0.000000
         Rot=    0.999978    0.006352    0.000129    0.002068 Ang=   0.77 deg.
 ExpMin= 3.60D-02 ExpMax= 6.29D+03 ExpMxC= 9.49D+02 IAcc=3 IRadAn=         5 AccDes= 0.00D+00
 Harris functional with IExCor=  402 and IRadAn=       5 diagonalized for initial guess.
 HarFok:  IExCor=  402 AccDes= 0.00D+00 IRadAn=         5 IDoV= 1 UseB2=F ITyADJ=14
 ICtDFT=  3500011 ScaDFX=  1.000000  1.000000  1.000000  1.000000
 FoFCou: FMM=F IPFlag=           0 FMFlag=      100000 FMFlg1=           0
         NFxFlg=           0 DoJE=T BraDBF=F KetDBF=T FulRan=T
         wScrn=  0.000000 ICntrl=       500 IOpCl=  0 I1Cent=   200000004 NGrid=           0
         NMat0=    1 NMatS0=      1 NMatT0=    0 NMatD0=    1 NMtDS0=    0 NMtDT0=    0
 Petite list used in FoFCou.
 Requested convergence on RMS density matrix=1.00D-08 within 128 cycles.
 Requested convergence on MAX density matrix=1.00D-06.
 Requested convergence on             energy=1.00D-06.
 No special actions if energy rises.
 SCF Done:  E(RB3LYP) =  -365.131980483     A.U. after   12 cycles
            NFock= 12  Conv=0.46D-08     -V/T= 2.0046
 Calling FoFJK, ICntrl=      2127 FMM=F ISym2X=0 I1Cent= 0 IOpClX= 0 NMat=1 NMatS=1 NMatT=0.
 ***** Axes restored to original set *****
 -------------------------------------------------------------------
 Center     Atomic                   Forces (Hartrees/Bohr)
 Number     Number              X              Y              Z
 -------------------------------------------------------------------
      1        1           0.000191749    0.000284683   -0.000168521
      2        6          -0.000486448    0.000300685    0.000544831
      3        1           0.000303865    0.000064879   -0.000412738
      4        6          -0.000685529    0.000291549    0.000900199
      5        1           0.000542467   -0.000386738   -0.000092939
      6        6          -0.000238257   -0.001832468   -0.001856061
      7        6           0.001717453    0.000561276    0.000146307
      8        1          -0.000632558    0.000067656   -0.000007943
      9        6          -0.001203235    0.000650265    0.000531951
     10        1           0.000498878   -0.000205967   -0.000241005
     11        6           0.002708549   -0.000232099    0.000581423
     12        7          -0.002470229   -0.000734466    0.000657513
     13        1          -0.000190798    0.000458639   -0.000255332
     14        1          -0.000161129    0.000315266   -0.000382950
     15        6          -0.001855684   -0.000274273   -0.000597257
     16        1           0.000377310    0.000244522    0.000203871
     17        6           0.002236645    0.000582245    0.000502524
     18        1          -0.000653047   -0.000155655   -0.000053873
 -------------------------------------------------------------------
 Cartesian Forces:  Max     0.002708549 RMS     0.000876241

 GradGradGradGradGradGradGradGradGradGradGradGradGradGradGradGradGradGrad
 Berny optimization.
 Using GEDIIS/GDIIS optimizer.
 FormGI is forming the generalized inverse of G from B-inverse, IUseBI=4.
 Internal  Forces:  Max     0.002818989 RMS     0.000546768
 Search for a local minimum.
 Step number   2 out of a maximum of   91
 All quantities printed in internal units (Hartrees-Bohrs-Radians)
 Mixed Optimization -- En-DIIS/RFO-DIIS
 Update second derivatives using D2CorX and points    1    2
 DE= -1.87D-03 DEPred=-2.05D-03 R= 9.11D-01
 TightC=F SS=  1.41D+00  RLast= 2.92D-01 DXNew= 5.0454D-01 8.7561D-01
 Trust test= 9.11D-01 RLast= 2.92D-01 DXMaxT set to 5.05D-01
 ITU=  1  0
 Use linear search instead of GDIIS.
     Eigenvalues ---    0.01164   0.01705   0.01800   0.02041   0.02089
     Eigenvalues ---    0.02093   0.02095   0.02101   0.02114   0.02122
     Eigenvalues ---    0.02141   0.02405   0.02890   0.02949   0.04433
     Eigenvalues ---    0.15188   0.15999   0.16000   0.16000   0.16000
     Eigenvalues ---    0.16000   0.16000   0.16000   0.16210   0.21941
     Eigenvalues ---    0.22004   0.22800   0.23922   0.24381   0.24974
     Eigenvalues ---    0.35039   0.35098   0.35185   0.35238   0.35250
     Eigenvalues ---    0.35304   0.35391   0.35576   0.41394   0.42162
     Eigenvalues ---    0.44262   0.45166   0.45261   0.45726   0.46063
     Eigenvalues ---    0.46247   0.46901   0.57448
 RFO step:  Lambda=-1.18522225D-04 EMin= 1.16378309D-02
 Quartic linear search produced a step of  0.00290.
 Iteration  1 RMS(Cart)=  0.01179273 RMS(Int)=  0.00005900
 Iteration  2 RMS(Cart)=  0.00009022 RMS(Int)=  0.00001010
 Iteration  3 RMS(Cart)=  0.00000000 RMS(Int)=  0.00001010
 Variable       Old X    -DE/DX   Delta X   Delta X   Delta X     New X
                                 (Linear)    (Quad)   (Total)
    R1        2.05023  -0.00022  -0.00000  -0.00063  -0.00063   2.04960
    R2        2.04951   0.00039  -0.00000   0.00111   0.00111   2.05061
    R3        2.51442   0.00044  -0.00005   0.00019   0.00014   2.51456
    R4        2.05916  -0.00001   0.00001   0.00008   0.00009   2.05925
    R5        2.80938   0.00013   0.00009   0.00148   0.00157   2.81096
    R6        2.63962   0.00082  -0.00001   0.00165   0.00164   2.64126
    R7        2.64535  -0.00047   0.00000  -0.00105  -0.00104   2.64430
    R8        2.04784   0.00033  -0.00002   0.00077   0.00075   2.04859
    R9        2.63039  -0.00102  -0.00004  -0.00272  -0.00277   2.62763
   R10        2.05082  -0.00003  -0.00001  -0.00014  -0.00014   2.05067
   R11        2.64545  -0.00009   0.00003   0.00017   0.00019   2.64564
   R12        2.65326  -0.00282   0.00003  -0.00585  -0.00582   2.64744
   R13        2.64562   0.00047   0.00002   0.00131   0.00134   2.64696
   R14        1.90925  -0.00034  -0.00002  -0.00105  -0.00108   1.90817
   R15        1.90920  -0.00033  -0.00003  -0.00102  -0.00104   1.90816
   R16        2.05095  -0.00009  -0.00001  -0.00034  -0.00035   2.05060
   R17        2.62978  -0.00128  -0.00005  -0.00345  -0.00350   2.62628
   R18        2.04747   0.00045  -0.00002   0.00100   0.00097   2.04844
    A1        2.04680  -0.00010   0.00001  -0.00049  -0.00049   2.04631
    A2        2.11480   0.00054   0.00004   0.00388   0.00391   2.11871
    A3        2.12158  -0.00043  -0.00005  -0.00335  -0.00341   2.11816
    A4        2.07015   0.00101  -0.00003   0.00534   0.00531   2.07547
    A5        2.17353  -0.00078  -0.00001  -0.00363  -0.00364   2.16989
    A6        2.03950  -0.00022   0.00003  -0.00170  -0.00167   2.03783
    A7        2.12556  -0.00170  -0.00004  -0.00725  -0.00730   2.11825
    A8        2.10278   0.00153   0.00008   0.00709   0.00716   2.10993
    A9        2.05471   0.00017  -0.00003   0.00028   0.00024   2.05495
   A10        2.08799  -0.00061  -0.00006  -0.00449  -0.00455   2.08344
   A11        2.11681   0.00013   0.00003   0.00111   0.00114   2.11795
   A12        2.07837   0.00049   0.00003   0.00338   0.00340   2.08178
   A13        2.08402   0.00089   0.00003   0.00522   0.00525   2.08927
   A14        2.10746  -0.00056  -0.00001  -0.00232  -0.00233   2.10513
   A15        2.09169  -0.00033  -0.00002  -0.00291  -0.00294   2.08875
   A16        2.10919  -0.00020   0.00003  -0.00079  -0.00078   2.10841
   A17        2.06414   0.00042  -0.00001   0.00152   0.00150   2.06564
   A18        2.10899  -0.00023   0.00002  -0.00099  -0.00098   2.10801
   A19        2.00294   0.00010   0.00005   0.00343   0.00345   2.00640
   A20        2.00252   0.00015   0.00005   0.00373   0.00375   2.00627
   A21        1.94226   0.00022  -0.00006   0.00409   0.00399   1.94625
   A22        2.09203  -0.00049  -0.00002  -0.00330  -0.00332   2.08871
   A23        2.10472  -0.00001  -0.00001  -0.00013  -0.00014   2.10458
   A24        2.08642   0.00050   0.00003   0.00342   0.00345   2.08987
   A25        2.11850  -0.00015   0.00003  -0.00042  -0.00038   2.11811
   A26        2.08620  -0.00044  -0.00005  -0.00337  -0.00342   2.08278
   A27        2.07847   0.00058   0.00002   0.00379   0.00381   2.08227
    D1       -0.00058   0.00000  -0.00004  -0.00073  -0.00077  -0.00135
    D2        3.13662   0.00006   0.00004   0.00285   0.00289   3.13951
    D3        3.13565   0.00023  -0.00012   0.00616   0.00604  -3.14150
    D4       -0.01034   0.00028  -0.00004   0.00973   0.00970  -0.00064
    D5        1.54667  -0.00028  -0.00007  -0.02185  -0.02192   1.52475
    D6       -1.61347  -0.00016  -0.00007  -0.01485  -0.01491  -1.62838
    D7       -1.59924  -0.00023   0.00001  -0.01832  -0.01832  -1.61756
    D8        1.52380  -0.00010   0.00001  -0.01131  -0.01131   1.51249
    D9       -0.01344   0.00004  -0.00001   0.00166   0.00163  -0.01181
   D10        3.13261   0.00005  -0.00002   0.00220   0.00215   3.13476
   D11       -3.13697  -0.00010  -0.00002  -0.00523  -0.00524   3.14097
   D12        0.00908  -0.00008  -0.00003  -0.00470  -0.00473   0.00435
   D13       -3.13238  -0.00005   0.00002  -0.00321  -0.00322  -3.13560
   D14        0.01731  -0.00007  -0.00004  -0.00474  -0.00480   0.01251
   D15       -0.00860   0.00006   0.00003   0.00343   0.00346  -0.00514
   D16        3.14109   0.00003  -0.00004   0.00191   0.00189  -3.14021
   D17        3.12972  -0.00002   0.00010   0.00048   0.00057   3.13029
   D18       -0.00572   0.00003   0.00012   0.00277   0.00288  -0.00285
   D19       -0.00744   0.00000   0.00009   0.00103   0.00111  -0.00633
[...]
 **** Fit      -0.003896
 **** Fit      -0.001037
 **** Fit       0.003777
 **** Fit       0.001302
 **** Fit      -0.002705
 **** Fit      -0.005012
 **** Fit      -0.006218
 **** Fit      -0.006746
 **** Fit      -0.006489
 **** Fit      -0.006309
 **** Fit      -0.005638
 **** Fit      -0.004141
 **** Fit      -0.001294
 **** Fit       0.003616
 **** Fit       0.001094
 **** Fit      -0.002954
 **** Fit      -0.005231
 **** Fit      -0.006391
 **** Fit      -0.006876
 **** Fit      -0.006464
 **** Fit      -0.006328
 **** Fit      -0.005751
 **** Fit      -0.004443
 **** Fit      -0.001973
 **** Fit       0.002207
 **** Fit       0.000051
 **** Fit      -0.003433
 **** Fit      -0.005425
 **** Fit      -0.006444
 **** Fit      -0.006862
 **** Fit      -0.006199
 **** Fit      -0.005736
 **** Fit      -0.004694
 **** Fit      -0.002793
 **** Fit       0.000254
 **** Fit       0.004469
 **** Fit       0.002501
 **** Fit      -0.001340
 **** Fit      -0.003954
 **** Fit      -0.005525
 **** Fit      -0.006355
 **** Fit      -0.006698
 **** Fit      -0.005926
 **** Fit      -0.005566
 **** Fit      -0.004782
 **** Fit      -0.003428
 **** Fit      -0.001412
 **** Fit       0.001144
 **** Fit       0.003661
 **** Fit       0.005111
 **** Fit       0.004689
 **** Fit       0.002625
 **** Fit      -0.000068
 **** Fit      -0.002501
 **** Fit      -0.004304
 **** Fit      -0.005466
 **** Fit      -0.006115
 **** Fit      -0.006393
 **** Fit      -0.005529
 **** Fit      -0.005245
 **** Fit      -0.004662
 **** Fit      -0.003718
 **** Fit      -0.002418
 **** Fit      -0.000906
 **** Fit       0.000465
 **** Fit       0.001205
 **** Fit       0.000980
 **** Fit      -0.000119
 **** Fit      -0.001652
 **** Fit      -0.003162
 **** Fit      -0.004381
 **** Fit      -0.005230
 **** Fit      -0.005737
 **** Fit      -0.004807
 **** Fit      -0.004358
 **** Fit      -0.003681
 **** Fit      -0.002813
 **** Fit      -0.001876
 **** Fit      -0.001081
 **** Fit      -0.000674
 **** Fit      -0.000808
 **** Fit      -0.001441
 **** Fit      -0.002370
 **** Fit      -0.003351
 **** Fit      -0.004204
 **** Fit      -0.004845
 **** Fit      -0.005259
 **** Fit      -0.003933
 **** Fit      -0.003419
 **** Fit      -0.002801
 **** Fit      -0.002170
 **** Fit      -0.001661
 **** Fit      -0.001411
 **** Fit      -0.001501
 **** Fit      -0.001911
 **** Fit      -0.002532
 **** Fit      -0.003221
 **** Fit      -0.003857
 **** Fit      -0.004368
 **** Fit      -0.003045
 **** Fit      -0.002572
 **** Fit      -0.002112
 **** Fit      -0.001755
 **** Fit      -0.001586
 **** Fit      -0.001654
 **** Fit      -0.001948
 **** Fit      -0.002402
 **** Fit      -0.002924
 **** Fit      -0.001909
 **** Fit      -0.001642
 **** Fit      -0.001520
 **** Fit      -0.001576
 **** Fit      -0.001802
 **** Fit      -0.002156
 **** Fit      -0.001467
 **** Fit      -0.001377
 **** Fit      -0.001425
 **** Fit      -0.000490
 **** Fit      -0.000355
 **** Fit      -0.000425
 **** Fit      -0.001147
 **** Fit      -0.000576
 **** Fit      -0.000148
 **** Fit       0.000047
 **** Fit      -0.000040
 **** Fit      -0.000396
 **** Fit      -0.000951
 **** Fit      -0.001604
 **** Fit      -0.002494
 **** Fit      -0.001764
 **** Fit      -0.000947
 **** Fit      -0.000156
 **** Fit       0.000458
 **** Fit       0.000749
 **** Fit       0.000635
 **** Fit       0.000138
 **** Fit      -0.000624
 **** Fit      -0.001497
 **** Fit      -0.002341
 **** Fit      -0.003334
 **** Fit      -0.002617
 **** Fit      -0.001675
 **** Fit      -0.000569
 **** Fit       0.000551
 **** Fit       0.001457
 **** Fit       0.001904
 **** Fit       0.001748
 **** Fit       0.001027
 **** Fit      -0.000056
 **** Fit      -0.001251
 **** Fit      -0.002355
 **** Fit      -0.003259
 **** Fit      -0.003565
 **** Fit      -0.002693
 **** Fit      -0.001483
 **** Fit       0.000016
 **** Fit       0.001617
 **** Fit       0.002975
 **** Fit       0.003674
 **** Fit       0.003449
 **** Fit       0.002374
 **** Fit       0.000806
 **** Fit      -0.000844
 **** Fit      -0.002292
 **** Fit      -0.003415
 **** Fit      -0.004201
 **** Fit      -0.004404
 **** Fit      -0.003770
 **** Fit      -0.002734
 **** Fit      -0.001218
 **** Fit       0.000766
 **** Fit       0.003013
 **** Fit       0.005019
 **** Fit       0.006095
 **** Fit       0.005768
 **** Fit       0.004170
 **** Fit       0.001926
 **** Fit      -0.000316
 **** Fit      -0.002175
 **** Fit      -0.003540
 **** Fit      -0.004447
 **** Fit      -0.004640
 **** Fit      -0.003954
 **** Fit      -0.002778
 **** Fit      -0.000977
 **** Fit       0.001507
 **** Fit       0.004473
 **** Fit       0.007259
 **** Fit       0.008810
 **** Fit       0.008354
 **** Fit       0.006110
 **** Fit       0.003075
 **** Fit       0.000194
 **** Fit      -0.002072
 **** Fit      -0.003655
 **** Fit      -0.004660
 **** Fit      -0.005230
 **** Fit      -0.004824
 **** Fit      -0.004122
 **** Fit      -0.002877
 **** Fit      -0.000901
 **** Fit       0.001927
 **** Fit       0.005441
 **** Fit       0.008865
 **** Fit       0.010826
 **** Fit       0.010258
 **** Fit       0.007467
 **** Fit       0.003803
 **** Fit       0.000455
 **** Fit      -0.002079
 **** Fit      -0.003787
 **** Fit      -0.004836
 **** Fit      -0.005409
 **** Fit      -0.004944
 **** Fit      -0.004274
 **** Fit      -0.003059
 **** Fit      -0.001102
 **** Fit       0.001741
 **** Fit       0.005327
 **** Fit       0.008868
 **** Fit       0.010324
 **** Fit       0.007425
 **** Fit       0.003658
 **** Fit       0.000264
 **** Fit      -0.002268
 **** Fit      -0.003951
 **** Fit      -0.004968
 **** Fit      -0.005512
 **** Fit      -0.004986
 **** Fit      -0.004390
 **** Fit      -0.003304
 **** Fit      -0.001564
 **** Fit       0.000934
 **** Fit       0.004039
 **** Fit       0.007063
 **** Fit       0.008792
 **** Fit       0.008291
 **** Fit       0.005826
 **** Fit       0.002586
 **** Fit      -0.000377
 **** Fit      -0.002619
 **** Fit      -0.004125
 **** Fit      -0.005039
 **** Fit      -0.005526
 **** Fit      -0.004936
 **** Fit      -0.004437
 **** Fit      -0.003540
 **** Fit      -0.002136
 **** Fit      -0.000187
 **** Fit       0.002144
 **** Fit       0.004329
 **** Fit       0.005543
 **** Fit       0.005184
 **** Fit       0.003422
 **** Fit       0.001035
 **** Fit      -0.001235
 **** Fit      -0.003020
 **** Fit      -0.004258
 **** Fit      -0.005028
 **** Fit      -0.005443
 **** Fit      -0.004789
 **** Fit      -0.004388
 **** Fit      -0.003686
 **** Fit      -0.002628
 **** Fit      -0.001227
 **** Fit       0.000361
 **** Fit       0.001778
 **** Fit       0.002535
 **** Fit       0.002303
 **** Fit       0.001172
 **** Fit      -0.000421
 **** Fit      -0.002016
 **** Fit      -0.003338
 **** Fit      -0.004298
 **** Fit      -0.004919
 **** Fit      -0.004233
 **** Fit      -0.003695
 **** Fit      -0.002922
 **** Fit      -0.001952
 **** Fit      -0.000910
 **** Fit      -0.000028
 **** Fit       0.000424
 **** Fit       0.000275
 **** Fit      -0.000427
 **** Fit      -0.001454
 **** Fit      -0.002539
 **** Fit      -0.003489
 **** Fit      -0.004217
 **** Fit      -0.004710
 **** Fit      -0.003567
 **** Fit      -0.003000
 **** Fit      -0.002323
 **** Fit      -0.001633
 **** Fit      -0.001074
 **** Fit      -0.000800
 **** Fit      -0.000899
 **** Fit      -0.001349
 **** Fit      -0.002025
 **** Fit      -0.002773
 **** Fit      -0.003463
 **** Fit      -0.004020
 **** Fit      -0.002904
 **** Fit      -0.002415
 **** Fit      -0.001938
 **** Fit      -0.001566
 **** Fit      -0.001391
 **** Fit      -0.001463
 **** Fit      -0.001769
 **** Fit      -0.002239
 **** Fit      -0.002778
 **** Fit      -0.003297
 **** Fit      -0.002329
 **** Fit      -0.001981
 **** Fit      -0.001719
 **** Fit      -0.001600
 **** Fit      -0.001656
 **** Fit      -0.001880
 **** Fit      -0.002227
 **** Fit      -0.000704
 **** Fit      -0.000391
 **** Fit      -0.000253
 **** Fit      -0.000322
 **** Fit      -0.000589
 **** Fit      -0.001573
 **** Fit      -0.000957
 **** Fit      -0.000382
 **** Fit       0.000051
 **** Fit       0.000249
 **** Fit       0.000164
 **** Fit      -0.000193
 **** Fit      -0.000748
 **** Fit      -0.001401
 **** Fit      -0.002201
 **** Fit      -0.001477
 **** Fit      -0.000672
 **** Fit       0.000106
 **** Fit       0.000710
 **** Fit       0.000998
 **** Fit       0.000888
 **** Fit       0.000402
 **** Fit      -0.000345
 **** Fit      -0.001201
 **** Fit      -0.002032
 **** Fit      -0.002224
 **** Fit      -0.001322
 **** Fit      -0.000280
 **** Fit       0.000765
 **** Fit       0.001604
 **** Fit       0.002016
 **** Fit       0.001872
 **** Fit       0.001208
 **** Fit       0.000203
 **** Fit      -0.000914
 **** Fit      -0.001960
 **** Fit      -0.002830
 **** Fit      -0.003046
 **** Fit      -0.002230
 **** Fit      -0.001140
 **** Fit       0.000169
 **** Fit       0.001530
 **** Fit       0.002660
 **** Fit       0.003231
 **** Fit       0.003045
 **** Fit       0.002155
 **** Fit       0.000837
 **** Fit      -0.000584
 **** Fit      -0.001867
 **** Fit      -0.002894
 **** Fit      -0.003642
 **** Fit      -0.003160
 **** Fit      -0.002251
 **** Fit      -0.000997
 **** Fit       0.000560
 **** Fit       0.002233
 **** Fit       0.003663
 **** Fit       0.004404
 **** Fit       0.004172
 **** Fit       0.003046
 **** Fit       0.001409
 **** Fit      -0.000303
 **** Fit      -0.001799
 **** Fit      -0.002959
 **** Fit      -0.003778
 **** Fit      -0.003273
 **** Fit      -0.002319
 **** Fit      -0.000973
 **** Fit       0.000738
 **** Fit       0.002620
 **** Fit       0.004262
 **** Fit       0.005127
 **** Fit       0.004862
 **** Fit       0.003566
 **** Fit       0.001709
 **** Fit      -0.000193
 **** Fit      -0.001817
 **** Fit      -0.003048
 **** Fit      -0.003898
 **** Fit      -0.003976
 **** Fit      -0.003386
 **** Fit      -0.002453
 **** Fit      -0.001122
 **** Fit       0.000584
 **** Fit       0.002477
 **** Fit       0.004141
 **** Fit       0.005023
 **** Fit       0.004755
 **** Fit       0.003438
 **** Fit       0.001564
 **** Fit      -0.000342
 **** Fit      -0.001957
 **** Fit      -0.003169
 **** Fit      -0.003998
 **** Fit      -0.003487
 **** Fit      -0.002638
 **** Fit      -0.001432
 **** Fit       0.000104
 **** Fit       0.001795
 **** Fit       0.003269
 **** Fit       0.004046
 **** Fit       0.003807
 **** Fit       0.002641
 **** Fit       0.000971
 **** Fit      -0.000742
 **** Fit      -0.002204
 **** Fit      -0.003309
 **** Fit      -0.004068
 **** Fit      -0.003553
 **** Fit      -0.002830
 **** Fit      -0.001819
 **** Fit      -0.000558
 **** Fit       0.000799
 **** Fit       0.001957
 **** Fit       0.002556
 **** Fit       0.002366
 **** Fit       0.001450
 **** Fit       0.000119
 **** Fit      -0.001276
 **** Fit      -0.002494
 **** Fit      -0.003434
 **** Fit      -0.004090
 **** Fit      -0.003559
 **** Fit      -0.002973
 **** Fit      -0.002175
 **** Fit      -0.001210
 **** Fit      -0.000205
 **** Fit       0.000629
 **** Fit       0.001049
 **** Fit       0.000909
 **** Fit       0.000247
 **** Fit      -0.000733
 **** Fit      -0.001791
 **** Fit      -0.002745
 **** Fit      -0.003505
 **** Fit      -0.003032
 **** Fit      -0.002423
 **** Fit      -0.001713
 **** Fit      -0.000999
 **** Fit      -0.000427
 **** Fit      -0.000147
 **** Fit      -0.000248
 **** Fit      -0.000708
 **** Fit      -0.001403
 **** Fit      -0.002177
 **** Fit      -0.002900
 **** Fit      -0.003497
 **** Fit      -0.002534
 **** Fit      -0.002017
 **** Fit      -0.001514
 **** Fit      -0.001124
 **** Fit      -0.000941
 **** Fit      -0.001016
 **** Fit      -0.001336
 **** Fit      -0.001827
 **** Fit      -0.002391
 **** Fit      -0.002937
 **** Fit      -0.002138
 **** Fit      -0.001779
 **** Fit      -0.001509
 **** Fit      -0.001386
 **** Fit      -0.001444
 **** Fit      -0.001674
 **** Fit      -0.002031
 **** Fit      -0.002450
 **** Fit      -0.001667
 **** Fit      -0.001583
 **** Fit      -0.001630
 **** Fit      -0.000608
 **** Fit      -0.000305
 **** Fit      -0.000171
 **** Fit      -0.000237
 **** Fit      -0.000493
 **** Fit      -0.000822
 **** Fit      -0.000285
 **** Fit       0.000117
 **** Fit       0.000301
 **** Fit       0.000222
 **** Fit      -0.000109
 **** Fit      -0.000625
 **** Fit      -0.001236
 **** Fit      -0.001291
 **** Fit      -0.000572
 **** Fit       0.000114
 **** Fit       0.000641
 **** Fit       0.000889
 **** Fit       0.000792
 **** Fit       0.000369
 **** Fit      -0.000287
 **** Fit      -0.001048
 **** Fit      -0.001797
 **** Fit      -0.001950
 **** Fit      -0.001177
 **** Fit      -0.000310
 **** Fit       0.000537
 **** Fit       0.001202
 **** Fit       0.001523
 **** Fit       0.001407
 **** Fit       0.000879
 **** Fit       0.000070
 **** Fit      -0.000850
 **** Fit      -0.001735
 **** Fit      -0.001966
 **** Fit      -0.001099
 **** Fit      -0.000105
 **** Fit       0.000886
 **** Fit       0.001679
 **** Fit       0.002069
 **** Fit       0.001935
 **** Fit       0.001309
 **** Fit       0.000360
 **** Fit      -0.000700
 **** Fit      -0.001699
 **** Fit      -0.002538
 **** Fit      -0.002727
 **** Fit      -0.002018
 **** Fit      -0.001102
 **** Fit      -0.000036
 **** Fit       0.001044
 **** Fit       0.001918
 **** Fit       0.002352
 **** Fit       0.002206
 **** Fit       0.001519
 **** Fit       0.000483
 **** Fit      -0.000661
 **** Fit      -0.001724
 **** Fit      -0.002602
 **** Fit      -0.002812
 **** Fit      -0.002117
 **** Fit      -0.001213
 **** Fit      -0.000153
 **** Fit       0.000925
 **** Fit       0.001801
 **** Fit       0.002238
 **** Fit       0.002092
 **** Fit       0.001403
 **** Fit       0.000366
 **** Fit      -0.000773
 **** Fit      -0.001827
 **** Fit      -0.002692
 **** Fit      -0.002253
 **** Fit      -0.001421
 **** Fit      -0.000449
 **** Fit       0.000534
 **** Fit       0.001330
 **** Fit       0.001725
 **** Fit       0.001591
 **** Fit       0.000963
 **** Fit       0.000017
 **** Fit      -0.001028
 **** Fit      -0.001999
 **** Fit      -0.002799
 **** Fit      -0.002398
 **** Fit      -0.001680
 **** Fit      -0.000853
 **** Fit      -0.000028
 **** Fit       0.000632
 **** Fit       0.000956
 **** Fit       0.000842
 **** Fit       0.000318
 **** Fit      -0.000477
 **** Fit      -0.001365
 **** Fit      -0.002202
 **** Fit      -0.002902
 **** Fit      -0.002518
 **** Fit      -0.001930
 **** Fit      -0.001266
 **** Fit      -0.000617
 **** Fit      -0.000108
 **** Fit       0.000137
 **** Fit       0.000044
 **** Fit      -0.000365
 **** Fit      -0.000991
 **** Fit      -0.001704
 **** Fit      -0.002389
 **** Fit      -0.002120
 **** Fit      -0.001608
 **** Fit      -0.001119
 **** Fit      -0.000744
 **** Fit      -0.000568
 **** Fit      -0.000641
 **** Fit      -0.000949
 **** Fit      -0.001425
 **** Fit      -0.001976
 **** Fit      -0.002518
 **** Fit      -0.001837
 **** Fit      -0.001475
 **** Fit      -0.001205
 **** Fit      -0.001083
 **** Fit      -0.001141
 **** Fit      -0.001370
 **** Fit      -0.001727
 **** Fit      -0.002148
 **** Fit      -0.001488
 **** Fit      -0.001403
 **** Fit      -0.001450
 **** Fit      -0.001624
 **** Fit      -0.000330
 **** Fit      -0.000212
 **** Fit      -0.000271
 **** Fit      -0.000816
 **** Fit      -0.000361
 **** Fit      -0.000024
 **** Fit       0.000128
 **** Fit       0.000060
 **** Fit      -0.000219
 **** Fit      -0.000658
 **** Fit      -0.000667
 **** Fit      -0.000127
 **** Fit       0.000279
 **** Fit       0.000467
 **** Fit       0.000389
 **** Fit       0.000059
 **** Fit      -0.000458
 **** Fit      -0.001068
 **** Fit      -0.001210
 **** Fit      -0.000562
 **** Fit       0.000049
 **** Fit       0.000515
 **** Fit       0.000733
 **** Fit       0.000647
 **** Fit       0.000272
 **** Fit      -0.000311
 **** Fit      -0.000992
 **** Fit      -0.001671
 **** Fit      -0.001226
 **** Fit      -0.000542
 **** Fit       0.000109
 **** Fit       0.000609
 **** Fit       0.000846
 **** Fit       0.000755
 **** Fit       0.000355
 **** Fit      -0.000266
 **** Fit      -0.000987
 **** Fit      -0.001698
 **** Fit      -0.001308
 **** Fit      -0.000631
 **** Fit       0.000017
 **** Fit       0.000516
 **** Fit       0.000753
 **** Fit       0.000663
 **** Fit       0.000263
 **** Fit      -0.000355
 **** Fit      -0.001071
 **** Fit      -0.001774
 **** Fit      -0.001449
 **** Fit      -0.000820
 **** Fit      -0.000220
 **** Fit       0.000241
 **** Fit       0.000458
 **** Fit       0.000374
 **** Fit       0.000003
 **** Fit      -0.000571
 **** Fit      -0.001238
 **** Fit      -0.001894
 **** Fit      -0.001623
 **** Fit      -0.001073
 **** Fit      -0.000554
 **** Fit      -0.000158
 **** Fit       0.000027
 **** Fit      -0.000048
 **** Fit      -0.000370
 **** Fit      -0.000870
 **** Fit      -0.001454
 **** Fit      -0.001338
 **** Fit      -0.000912
 **** Fit      -0.000591
 **** Fit      -0.000445
 **** Fit      -0.000509
 **** Fit      -0.000775
 **** Fit      -0.001189
 **** Fit      -0.001677
 **** Fit      -0.001231
 **** Fit      -0.000983
 **** Fit      -0.000873
 **** Fit      -0.000927
 **** Fit      -0.001139
 **** Fit      -0.001469
 **** Fit      -0.000201
 **** Fit      -0.000256
 **** Fit      -0.000482
 **** Fit      -0.000197
 **** Fit      -0.000070
 **** Fit      -0.000129
 **** Fit      -0.000367
 **** Fit      -0.000465
 **** Fit      -0.000164
 **** Fit      -0.000029
 **** Fit      -0.000090
 **** Fit      -0.000340
 **** Fit      -0.000733
 **** Fit      -0.000535
 **** Fit      -0.000235
 **** Fit      -0.000100
 **** Fit      -0.000161
 **** Fit      -0.000410
 **** Fit      -0.000801
 **** Fit      -0.000685
 **** Fit      -0.000406
 **** Fit      -0.000280
 **** Fit      -0.000338
 **** Fit      -0.000572
 **** Fit      -0.000940
 **** Fit      -0.000645
 **** Fit      -0.000536
 **** Fit      -0.000589
 **** Fit      -0.000798
 -----------------------------------------------------------------
 Leave Link  602 at Thu Apr 21 16:40:05 2022, MaxMem=   104857600 cpu:               1.2 elap:               1.2
 (Enter /opt/ohpc/pub/libs/gaussian/g16-A.03/haswell/g16/l9999.exe)

 Test job not archived.
 1\1\GINC-CASCADEB015\SP\RB3LYP\6-311++G(d,p)\C8H9N1\MNG228\21-Apr-2022
 \0\\#P B3LYP/6-311++G(d,p) Geom=Allcheck SCF=Tight EmpiricalDispersion
 =GD3BJ Pop=CHELPG SP IOp(6/33=2)\\4AS geo opt\\0,1\H,0,0.9181362399,-0
 .3802551278,-0.2041490702\C,0,1.978136064,-0.2723810932,-0.0108056992\
 H,0,2.2738240318,0.5686951663,0.6062240512\C,0,2.8595433667,-1.1419558
 577,-0.5170430364\H,0,2.4760364698,-1.9571807822,-1.1271318404\C,0,4.3
 161890562,-1.140811826,-0.3541237452\C,0,5.0095399909,-0.1781888255,0.
 3975868149\H,0,4.4623856341,0.6152688351,0.892472089\C,0,6.3873795359,
 -0.2148491432,0.5269050904\H,0,6.8950333768,0.5467007752,1.1100337745\
 C,0,7.1413591647,-1.2253619436,-0.0929789382\N,0,8.5324328149,-1.22920
 53297,-0.0056168328\H,0,8.9826892555,-2.1153707746,-0.1785913688\H,0,8
 .9259202814,-0.7432101621,0.7861594157\C,0,6.4625961821,-2.1906575087,
 -0.8467700631\H,0,7.0229407099,-2.9777593282,-1.3404882929\C,0,5.08047
 78162,-2.1423551491,-0.9690758252\H,0,4.5770800091,-2.902821925,-1.557
 0065231\\Version=ES64L-G16RevA.03\State=1-A\HF=-365.139502\RMSD=6.794e
 -09\Dipole=0.7576917,-0.2757642,0.3450811\Quadrupole=3.530829,-0.25418
 03,-3.2766487,-1.9504891,3.3871474,4.2780843\PG=C01 [X(C8H9N1)]\\@


 IT TAKES GREATER CHARACTER TO CARRY OFF GOOD FORTUNE THAN BAD.
                     FRENCH PROVERB.
 Job cpu time:       0 days  0 hours  2 minutes 22.6 seconds.
 Elapsed time:       0 days  0 hours  2 minutes 23.5 seconds.
 File lengths (MBytes):  RWF=    272 Int=      0 D2E=      0 Chk=     32 Scr=     32
 Normal termination of Gaussian 16 at Thu Apr 21 16:40:05 2022.
